+ 0.0000 1 2 tcp 40 ------- 2 1.0 2.1 0 0 40.90 -73.90 37.80 -122.40
- 0.0000 1 2 tcp 40 ------- 2 1.0 2.1 0 0 40.90 -73.90 37.80 -122.40
r 0.2534 1 2 tcp 40 ------- 2 1.0 2.1 0 0 40.90 -73.90 37.80 -122.40
+ 0.2534 2 1 ack 40 ------- 2 2.1 1.0 0 1 37.80 -122.40 40.90 -73.90
- 0.2534 2 1 ack 40 ------- 2 2.1 1.0 0 1 37.80 -122.40 40.90 -73.90
r 0.5068 2 1 ack 40 ------- 2 2.1 1.0 0 1 37.80 -122.40 40.90 -73.90
+ 0.5068 1 2 tcp 9040 ------- 2 1.0 2.1 1 2 40.90 -73.90 37.80 -122.40
- 0.5068 1 2 tcp 9040 ------- 2 1.0 2.1 1 2 40.90 -73.90 37.80 -122.40
+ 0.5068 1 2 tcp 9040 ------- 2 1.0 2.1 2 3 40.90 -73.90 37.80 -122.40
- 0.5430 1 2 tcp 9040 ------- 2 1.0 2.1 2 3 40.90 -73.90 37.80 -122.40
r 0.7962 1 2 tcp 9040 ------- 2 1.0 2.1 1 2 40.90 -73.90 37.80 -122.40
+ 0.7962 2 1 ack 40 ------- 2 2.1 1.0 1 4 37.80 -122.40 40.90 -73.90
- 0.7962 2 1 ack 40 ------- 2 2.1 1.0 1 4 37.80 -122.40 40.90 -73.90
r 0.8324 1 2 tcp 9040 ------- 2 1.0 2.1 2 3 40.90 -73.90 37.80 -122.40
+ 0.8324 2 1 ack 40 ------- 2 2.1 1.0 2 5 37.80 -122.40 40.90 -73.90
- 0.8324 2 1 ack 40 ------- 2 2.1 1.0 2 5 37.80 -122.40 40.90 -73.90
r 1.0496 2 1 ack 40 ------- 2 2.1 1.0 1 4 37.80 -122.40 40.90 -73.90
+ 1.0496 1 2 tcp 9040 ------- 2 1.0 2.1 3 6 40.90 -73.90 37.80 -122.40
- 1.0496 1 2 tcp 9040 ------- 2 1.0 2.1 3 6 40.90 -73.90 37.80 -122.40
+ 1.0496 1 2 tcp 9040 ------- 2 1.0 2.1 4 7 40.90 -73.90 37.80 -122.40
- 1.0858 1 2 tcp 9040 ------- 2 1.0 2.1 4 7 40.90 -73.90 37.80 -122.40
r 1.0858 2 1 ack 40 ------- 2 2.1 1.0 2 5 37.80 -122.40 40.90 -73.90
+ 1.0858 1 2 tcp 9040 ------- 2 1.0 2.1 5 8 40.90 -73.90 37.80 -122.40
+ 1.0858 1 2 tcp 9040 ------- 2 1.0 2.1 6 9 40.90 -73.90 37.80 -122.40
- 1.1220 1 2 tcp 9040 ------- 2 1.0 2.1 5 8 40.90 -73.90 37.80 -122.40
- 1.1583 1 2 tcp 9040 ------- 2 1.0 2.1 6 9 40.90 -73.90 37.80 -122.40
r 1.3390 1 2 tcp 9040 ------- 2 1.0 2.1 3 6 40.90 -73.90 37.80 -122.40
+ 1.3390 2 1 ack 40 ------- 2 2.1 1.0 3 10 37.80 -122.40 40.90 -73.90
- 1.3390 2 1 ack 40 ------- 2 2.1 1.0 3 10 37.80 -122.40 40.90 -73.90
r 1.3752 1 2 tcp 9040 ------- 2 1.0 2.1 4 7 40.90 -73.90 37.80 -122.40
+ 1.3752 2 1 ack 40 ------- 2 2.1 1.0 4 11 37.80 -122.40 40.90 -73.90
- 1.3752 2 1 ack 40 ------- 2 2.1 1.0 4 11 37.80 -122.40 40.90 -73.90
r 1.4114 1 2 tcp 9040 ------- 2 1.0 2.1 5 8 40.90 -73.90 37.80 -122.40
+ 1.4114 2 1 ack 40 ------- 2 2.1 1.0 5 12 37.80 -122.40 40.90 -73.90
- 1.4114 2 1 ack 40 ------- 2 2.1 1.0 5 12 37.80 -122.40 40.90 -73.90
r 1.4477 1 2 tcp 9040 ------- 2 1.0 2.1 6 9 40.90 -73.90 37.80 -122.40
+ 1.4477 2 1 ack 40 ------- 2 2.1 1.0 6 13 37.80 -122.40 40.90 -73.90
- 1.4477 2 1 ack 40 ------- 2 2.1 1.0 6 13 37.80 -122.40 40.90 -73.90
r 1.5924 2 1 ack 40 ------- 2 2.1 1.0 3 10 37.80 -122.40 40.90 -73.90
+ 1.5924 1 2 tcp 9040 ------- 2 1.0 2.1 7 14 40.90 -73.90 37.80 -122.40
- 1.5924 1 2 tcp 9040 ------- 2 1.0 2.1 7 14 40.90 -73.90 37.80 -122.40
+ 1.5924 1 2 tcp 9040 ------- 2 1.0 2.1 8 15 40.90 -73.90 37.80 -122.40
- 1.6286 1 2 tcp 9040 ------- 2 1.0 2.1 8 15 40.90 -73.90 37.80 -122.40
r 1.6286 2 1 ack 40 ------- 2 2.1 1.0 4 11 37.80 -122.40 40.90 -73.90
+ 1.6286 1 2 tcp 9040 ------- 2 1.0 2.1 9 16 40.90 -73.90 37.80 -122.40
+ 1.6286 1 2 tcp 9040 ------- 2 1.0 2.1 10 17 40.90 -73.90 37.80 -122.40
- 1.6648 1 2 tcp 9040 ------- 2 1.0 2.1 9 16 40.90 -73.90 37.80 -122.40
r 1.6648 2 1 ack 40 ------- 2 2.1 1.0 5 12 37.80 -122.40 40.90 -73.90
+ 1.6648 1 2 tcp 9040 ------- 2 1.0 2.1 11 18 40.90 -73.90 37.80 -122.40
+ 1.6648 1 2 tcp 9040 ------- 2 1.0 2.1 12 19 40.90 -73.90 37.80 -122.40
- 1.7011 1 2 tcp 9040 ------- 2 1.0 2.1 10 17 40.90 -73.90 37.80 -122.40
r 1.7011 2 1 ack 40 ------- 2 2.1 1.0 6 13 37.80 -122.40 40.90 -73.90
+ 1.7011 1 2 tcp 9040 ------- 2 1.0 2.1 13 20 40.90 -73.90 37.80 -122.40
+ 1.7011 1 2 tcp 9040 ------- 2 1.0 2.1 14 21 40.90 -73.90 37.80 -122.40
- 1.7373 1 2 tcp 9040 ------- 2 1.0 2.1 11 18 40.90 -73.90 37.80 -122.40
- 1.7735 1 2 tcp 9040 ------- 2 1.0 2.1 12 19 40.90 -73.90 37.80 -122.40
- 1.8097 1 2 tcp 9040 ------- 2 1.0 2.1 13 20 40.90 -73.90 37.80 -122.40
- 1.8460 1 2 tcp 9040 ------- 2 1.0 2.1 14 21 40.90 -73.90 37.80 -122.40
r 1.8818 1 2 tcp 9040 ------- 2 1.0 2.1 7 14 40.90 -73.90 37.80 -122.40
+ 1.8818 2 1 ack 40 ------- 2 2.1 1.0 7 22 37.80 -122.40 40.90 -73.90
- 1.8818 2 1 ack 40 ------- 2 2.1 1.0 7 22 37.80 -122.40 40.90 -73.90
r 1.9180 1 2 tcp 9040 ------- 2 1.0 2.1 8 15 40.90 -73.90 37.80 -122.40
+ 1.9180 2 1 ack 40 ------- 2 2.1 1.0 8 23 37.80 -122.40 40.90 -73.90
- 1.9180 2 1 ack 40 ------- 2 2.1 1.0 8 23 37.80 -122.40 40.90 -73.90
r 1.9542 1 2 tcp 9040 ------- 2 1.0 2.1 9 16 40.90 -73.90 37.80 -122.40
+ 1.9542 2 1 ack 40 ------- 2 2.1 1.0 9 24 37.80 -122.40 40.90 -73.90
- 1.9542 2 1 ack 40 ------- 2 2.1 1.0 9 24 37.80 -122.40 40.90 -73.90
r 1.9905 1 2 tcp 9040 ------- 2 1.0 2.1 10 17 40.90 -73.90 37.80 -122.40
+ 1.9905 2 1 ack 40 ------- 2 2.1 1.0 10 25 37.80 -122.40 40.90 -73.90
- 1.9905 2 1 ack 40 ------- 2 2.1 1.0 10 25 37.80 -122.40 40.90 -73.90
r 2.0267 1 2 tcp 9040 ------- 2 1.0 2.1 11 18 40.90 -73.90 37.80 -122.40
+ 2.0267 2 1 ack 40 ------- 2 2.1 1.0 11 26 37.80 -122.40 40.90 -73.90
- 2.0267 2 1 ack 40 ------- 2 2.1 1.0 11 26 37.80 -122.40 40.90 -73.90
r 2.0629 1 2 tcp 9040 ------- 2 1.0 2.1 12 19 40.90 -73.90 37.80 -122.40
+ 2.0629 2 1 ack 40 ------- 2 2.1 1.0 12 27 37.80 -122.40 40.90 -73.90
- 2.0629 2 1 ack 40 ------- 2 2.1 1.0 12 27 37.80 -122.40 40.90 -73.90
r 2.0991 1 2 tcp 9040 ------- 2 1.0 2.1 13 20 40.90 -73.90 37.80 -122.40
+ 2.0991 2 1 ack 40 ------- 2 2.1 1.0 13 28 37.80 -122.40 40.90 -73.90
- 2.0991 2 1 ack 40 ------- 2 2.1 1.0 13 28 37.80 -122.40 40.90 -73.90
r 2.1352 2 1 ack 40 ------- 2 2.1 1.0 7 22 37.80 -122.40 40.90 -73.90
+ 2.1352 1 2 tcp 9040 ------- 2 1.0 2.1 15 29 40.90 -73.90 37.80 -122.40
- 2.1352 1 2 tcp 9040 ------- 2 1.0 2.1 15 29 40.90 -73.90 37.80 -122.40
+ 2.1352 1 2 tcp 9040 ------- 2 1.0 2.1 16 30 40.90 -73.90 37.80 -122.40
r 2.1354 1 2 tcp 9040 ------- 2 1.0 2.1 14 21 40.90 -73.90 37.80 -122.40
+ 2.1354 2 1 ack 40 ------- 2 2.1 1.0 14 31 37.80 -122.40 40.90 -73.90
- 2.1354 2 1 ack 40 ------- 2 2.1 1.0 14 31 37.80 -122.40 40.90 -73.90
- 2.1714 1 2 tcp 9040 ------- 2 1.0 2.1 16 30 40.90 -73.90 37.80 -122.40
r 2.1714 2 1 ack 40 ------- 2 2.1 1.0 8 23 37.80 -122.40 40.90 -73.90
+ 2.1714 1 2 tcp 9040 ------- 2 1.0 2.1 17 32 40.90 -73.90 37.80 -122.40
+ 2.1714 1 2 tcp 9040 ------- 2 1.0 2.1 18 33 40.90 -73.90 37.80 -122.40
- 2.2076 1 2 tcp 9040 ------- 2 1.0 2.1 17 32 40.90 -73.90 37.80 -122.40
r 2.2076 2 1 ack 40 ------- 2 2.1 1.0 9 24 37.80 -122.40 40.90 -73.90
+ 2.2076 1 2 tcp 9040 ------- 2 1.0 2.1 19 34 40.90 -73.90 37.80 -122.40
+ 2.2076 1 2 tcp 9040 ------- 2 1.0 2.1 20 35 40.90 -73.90 37.80 -122.40
- 2.2439 1 2 tcp 9040 ------- 2 1.0 2.1 18 33 40.90 -73.90 37.80 -122.40
r 2.2439 2 1 ack 40 ------- 2 2.1 1.0 10 25 37.80 -122.40 40.90 -73.90
+ 2.2439 1 2 tcp 9040 ------- 2 1.0 2.1 21 36 40.90 -73.90 37.80 -122.40
+ 2.2439 1 2 tcp 9040 ------- 2 1.0 2.1 22 37 40.90 -73.90 37.80 -122.40
- 2.2801 1 2 tcp 9040 ------- 2 1.0 2.1 19 34 40.90 -73.90 37.80 -122.40
r 2.2801 2 1 ack 40 ------- 2 2.1 1.0 11 26 37.80 -122.40 40.90 -73.90
+ 2.2801 1 2 tcp 9040 ------- 2 1.0 2.1 23 38 40.90 -73.90 37.80 -122.40
+ 2.2801 1 2 tcp 9040 ------- 2 1.0 2.1 24 39 40.90 -73.90 37.80 -122.40
- 2.3163 1 2 tcp 9040 ------- 2 1.0 2.1 20 35 40.90 -73.90 37.80 -122.40
r 2.3163 2 1 ack 40 ------- 2 2.1 1.0 12 27 37.80 -122.40 40.90 -73.90
+ 2.3163 1 2 tcp 9040 ------- 2 1.0 2.1 25 40 40.90 -73.90 37.80 -122.40
+ 2.3163 1 2 tcp 9040 ------- 2 1.0 2.1 26 41 40.90 -73.90 37.80 -122.40
- 2.3525 1 2 tcp 9040 ------- 2 1.0 2.1 21 36 40.90 -73.90 37.80 -122.40
r 2.3525 2 1 ack 40 ------- 2 2.1 1.0 13 28 37.80 -122.40 40.90 -73.90
+ 2.3525 1 2 tcp 9040 ------- 2 1.0 2.1 27 42 40.90 -73.90 37.80 -122.40
+ 2.3525 1 2 tcp 9040 ------- 2 1.0 2.1 28 43 40.90 -73.90 37.80 -122.40
- 2.3887 1 2 tcp 9040 ------- 2 1.0 2.1 22 37 40.90 -73.90 37.80 -122.40
r 2.3887 2 1 ack 40 ------- 2 2.1 1.0 14 31 37.80 -122.40 40.90 -73.90
+ 2.3887 1 2 tcp 9040 ------- 2 1.0 2.1 29 44 40.90 -73.90 37.80 -122.40
+ 2.3887 1 2 tcp 9040 ------- 2 1.0 2.1 30 45 40.90 -73.90 37.80 -122.40
r 2.4246 1 2 tcp 9040 ------- 2 1.0 2.1 15 29 40.90 -73.90 37.80 -122.40
+ 2.4246 2 1 ack 40 ------- 2 2.1 1.0 15 46 37.80 -122.40 40.90 -73.90
- 2.4246 2 1 ack 40 ------- 2 2.1 1.0 15 46 37.80 -122.40 40.90 -73.90
- 2.4250 1 2 tcp 9040 ------- 2 1.0 2.1 23 38 40.90 -73.90 37.80 -122.40
r 2.4608 1 2 tcp 9040 ------- 2 1.0 2.1 16 30 40.90 -73.90 37.80 -122.40
+ 2.4608 2 1 ack 40 ------- 2 2.1 1.0 16 47 37.80 -122.40 40.90 -73.90
- 2.4608 2 1 ack 40 ------- 2 2.1 1.0 16 47 37.80 -122.40 40.90 -73.90
- 2.4612 1 2 tcp 9040 ------- 2 1.0 2.1 24 39 40.90 -73.90 37.80 -122.40
r 2.4970 1 2 tcp 9040 ------- 2 1.0 2.1 17 32 40.90 -73.90 37.80 -122.40
+ 2.4970 2 1 ack 40 ------- 2 2.1 1.0 17 48 37.80 -122.40 40.90 -73.90
- 2.4970 2 1 ack 40 ------- 2 2.1 1.0 17 48 37.80 -122.40 40.90 -73.90
- 2.4974 1 2 tcp 9040 ------- 2 1.0 2.1 25 40 40.90 -73.90 37.80 -122.40
r 2.5333 1 2 tcp 9040 ------- 2 1.0 2.1 18 33 40.90 -73.90 37.80 -122.40
+ 2.5333 2 1 ack 40 ------- 2 2.1 1.0 18 49 37.80 -122.40 40.90 -73.90
- 2.5333 2 1 ack 40 ------- 2 2.1 1.0 18 49 37.80 -122.40 40.90 -73.90
- 2.5336 1 2 tcp 9040 ------- 2 1.0 2.1 26 41 40.90 -73.90 37.80 -122.40
r 2.5695 1 2 tcp 9040 ------- 2 1.0 2.1 19 34 40.90 -73.90 37.80 -122.40
+ 2.5695 2 1 ack 40 ------- 2 2.1 1.0 19 50 37.80 -122.40 40.90 -73.90
- 2.5695 2 1 ack 40 ------- 2 2.1 1.0 19 50 37.80 -122.40 40.90 -73.90
- 2.5699 1 2 tcp 9040 ------- 2 1.0 2.1 27 42 40.90 -73.90 37.80 -122.40
r 2.6057 1 2 tcp 9040 ------- 2 1.0 2.1 20 35 40.90 -73.90 37.80 -122.40
+ 2.6057 2 1 ack 40 ------- 2 2.1 1.0 20 51 37.80 -122.40 40.90 -73.90
- 2.6057 2 1 ack 40 ------- 2 2.1 1.0 20 51 37.80 -122.40 40.90 -73.90
- 2.6061 1 2 tcp 9040 ------- 2 1.0 2.1 28 43 40.90 -73.90 37.80 -122.40
r 2.6419 1 2 tcp 9040 ------- 2 1.0 2.1 21 36 40.90 -73.90 37.80 -122.40
+ 2.6419 2 1 ack 40 ------- 2 2.1 1.0 21 52 37.80 -122.40 40.90 -73.90
- 2.6419 2 1 ack 40 ------- 2 2.1 1.0 21 52 37.80 -122.40 40.90 -73.90
- 2.6423 1 2 tcp 9040 ------- 2 1.0 2.1 29 44 40.90 -73.90 37.80 -122.40
r 2.6780 2 1 ack 40 ------- 2 2.1 1.0 15 46 37.80 -122.40 40.90 -73.90
+ 2.6780 1 2 tcp 9040 ------- 2 1.0 2.1 31 53 40.90 -73.90 37.80 -122.40
+ 2.6780 1 2 tcp 9040 ------- 2 1.0 2.1 32 54 40.90 -73.90 37.80 -122.40
r 2.6781 1 2 tcp 9040 ------- 2 1.0 2.1 22 37 40.90 -73.90 37.80 -122.40
+ 2.6781 2 1 ack 40 ------- 2 2.1 1.0 22 55 37.80 -122.40 40.90 -73.90
- 2.6781 2 1 ack 40 ------- 2 2.1 1.0 22 55 37.80 -122.40 40.90 -73.90
- 2.6785 1 2 tcp 9040 ------- 2 1.0 2.1 30 45 40.90 -73.90 37.80 -122.40
r 2.7142 2 1 ack 40 ------- 2 2.1 1.0 16 47 37.80 -122.40 40.90 -73.90
+ 2.7142 1 2 tcp 9040 ------- 2 1.0 2.1 33 56 40.90 -73.90 37.80 -122.40
+ 2.7142 1 2 tcp 9040 ------- 2 1.0 2.1 34 57 40.90 -73.90 37.80 -122.40
r 2.7144 1 2 tcp 9040 ------- 2 1.0 2.1 23 38 40.90 -73.90 37.80 -122.40
+ 2.7144 2 1 ack 40 ------- 2 2.1 1.0 23 58 37.80 -122.40 40.90 -73.90
- 2.7144 2 1 ack 40 ------- 2 2.1 1.0 23 58 37.80 -122.40 40.90 -73.90
- 2.7148 1 2 tcp 9040 ------- 2 1.0 2.1 31 53 40.90 -73.90 37.80 -122.40
r 2.7504 2 1 ack 40 ------- 2 2.1 1.0 17 48 37.80 -122.40 40.90 -73.90
+ 2.7504 1 2 tcp 9040 ------- 2 1.0 2.1 35 59 40.90 -73.90 37.80 -122.40
+ 2.7504 1 2 tcp 9040 ------- 2 1.0 2.1 36 60 40.90 -73.90 37.80 -122.40
r 2.7506 1 2 tcp 9040 ------- 2 1.0 2.1 24 39 40.90 -73.90 37.80 -122.40
+ 2.7506 2 1 ack 40 ------- 2 2.1 1.0 24 61 37.80 -122.40 40.90 -73.90
- 2.7506 2 1 ack 40 ------- 2 2.1 1.0 24 61 37.80 -122.40 40.90 -73.90
- 2.7510 1 2 tcp 9040 ------- 2 1.0 2.1 32 54 40.90 -73.90 37.80 -122.40
r 2.7866 2 1 ack 40 ------- 2 2.1 1.0 18 49 37.80 -122.40 40.90 -73.90
+ 2.7866 1 2 tcp 9040 ------- 2 1.0 2.1 37 62 40.90 -73.90 37.80 -122.40
+ 2.7866 1 2 tcp 9040 ------- 2 1.0 2.1 38 63 40.90 -73.90 37.80 -122.40
r 2.7868 1 2 tcp 9040 ------- 2 1.0 2.1 25 40 40.90 -73.90 37.80 -122.40
+ 2.7868 2 1 ack 40 ------- 2 2.1 1.0 25 64 37.80 -122.40 40.90 -73.90
- 2.7868 2 1 ack 40 ------- 2 2.1 1.0 25 64 37.80 -122.40 40.90 -73.90
- 2.7872 1 2 tcp 9040 ------- 2 1.0 2.1 33 56 40.90 -73.90 37.80 -122.40
r 2.8229 2 1 ack 40 ------- 2 2.1 1.0 19 50 37.80 -122.40 40.90 -73.90
+ 2.8229 1 2 tcp 9040 ------- 2 1.0 2.1 39 65 40.90 -73.90 37.80 -122.40
r 2.8230 1 2 tcp 9040 ------- 2 1.0 2.1 26 41 40.90 -73.90 37.80 -122.40
+ 2.8230 2 1 ack 40 ------- 2 2.1 1.0 26 66 37.80 -122.40 40.90 -73.90
- 2.8230 2 1 ack 40 ------- 2 2.1 1.0 26 66 37.80 -122.40 40.90 -73.90
- 2.8234 1 2 tcp 9040 ------- 2 1.0 2.1 34 57 40.90 -73.90 37.80 -122.40
r 2.8591 2 1 ack 40 ------- 2 2.1 1.0 20 51 37.80 -122.40 40.90 -73.90
+ 2.8591 1 2 tcp 9040 ------- 2 1.0 2.1 40 67 40.90 -73.90 37.80 -122.40
r 2.8593 1 2 tcp 9040 ------- 2 1.0 2.1 27 42 40.90 -73.90 37.80 -122.40
+ 2.8593 2 1 ack 40 ------- 2 2.1 1.0 27 68 37.80 -122.40 40.90 -73.90
- 2.8593 2 1 ack 40 ------- 2 2.1 1.0 27 68 37.80 -122.40 40.90 -73.90
- 2.8597 1 2 tcp 9040 ------- 2 1.0 2.1 35 59 40.90 -73.90 37.80 -122.40
r 2.8953 2 1 ack 40 ------- 2 2.1 1.0 21 52 37.80 -122.40 40.90 -73.90
+ 2.8953 1 2 tcp 9040 ------- 2 1.0 2.1 41 69 40.90 -73.90 37.80 -122.40
r 2.8955 1 2 tcp 9040 ------- 2 1.0 2.1 28 43 40.90 -73.90 37.80 -122.40
+ 2.8955 2 1 ack 40 ------- 2 2.1 1.0 28 70 37.80 -122.40 40.90 -73.90
- 2.8955 2 1 ack 40 ------- 2 2.1 1.0 28 70 37.80 -122.40 40.90 -73.90
- 2.8959 1 2 tcp 9040 ------- 2 1.0 2.1 36 60 40.90 -73.90 37.80 -122.40
r 2.9315 2 1 ack 40 ------- 2 2.1 1.0 22 55 37.80 -122.40 40.90 -73.90
+ 2.9315 1 2 tcp 9040 ------- 2 1.0 2.1 42 71 40.90 -73.90 37.80 -122.40
r 2.9317 1 2 tcp 9040 ------- 2 1.0 2.1 29 44 40.90 -73.90 37.80 -122.40
+ 2.9317 2 1 ack 40 ------- 2 2.1 1.0 29 72 37.80 -122.40 40.90 -73.90
- 2.9317 2 1 ack 40 ------- 2 2.1 1.0 29 72 37.80 -122.40 40.90 -73.90
- 2.9321 1 2 tcp 9040 ------- 2 1.0 2.1 37 62 40.90 -73.90 37.80 -122.40
r 2.9678 2 1 ack 40 ------- 2 2.1 1.0 23 58 37.80 -122.40 40.90 -73.90
+ 2.9678 1 2 tcp 9040 ------- 2 1.0 2.1 43 73 40.90 -73.90 37.80 -122.40
r 2.9679 1 2 tcp 9040 ------- 2 1.0 2.1 30 45 40.90 -73.90 37.80 -122.40
+ 2.9679 2 1 ack 40 ------- 2 2.1 1.0 30 74 37.80 -122.40 40.90 -73.90
- 2.9679 2 1 ack 40 ------- 2 2.1 1.0 30 74 37.80 -122.40 40.90 -73.90
- 2.9683 1 2 tcp 9040 ------- 2 1.0 2.1 38 63 40.90 -73.90 37.80 -122.40
r 3.0040 2 1 ack 40 ------- 2 2.1 1.0 24 61 37.80 -122.40 40.90 -73.90
+ 3.0040 1 2 tcp 9040 ------- 2 1.0 2.1 44 75 40.90 -73.90 37.80 -122.40
r 3.0042 1 2 tcp 9040 ------- 2 1.0 2.1 31 53 40.90 -73.90 37.80 -122.40
+ 3.0042 2 1 ack 40 ------- 2 2.1 1.0 31 76 37.80 -122.40 40.90 -73.90
- 3.0042 2 1 ack 40 ------- 2 2.1 1.0 31 76 37.80 -122.40 40.90 -73.90
- 3.0046 1 2 tcp 9040 ------- 2 1.0 2.1 39 65 40.90 -73.90 37.80 -122.40
r 3.0402 2 1 ack 40 ------- 2 2.1 1.0 25 64 37.80 -122.40 40.90 -73.90
+ 3.0402 1 2 tcp 9040 ------- 2 1.0 2.1 45 77 40.90 -73.90 37.80 -122.40
r 3.0404 1 2 tcp 9040 ------- 2 1.0 2.1 32 54 40.90 -73.90 37.80 -122.40
+ 3.0404 2 1 ack 40 ------- 2 2.1 1.0 32 78 37.80 -122.40 40.90 -73.90
- 3.0404 2 1 ack 40 ------- 2 2.1 1.0 32 78 37.80 -122.40 40.90 -73.90
- 3.0408 1 2 tcp 9040 ------- 2 1.0 2.1 40 67 40.90 -73.90 37.80 -122.40
r 3.0764 2 1 ack 40 ------- 2 2.1 1.0 26 66 37.80 -122.40 40.90 -73.90
+ 3.0764 1 2 tcp 9040 ------- 2 1.0 2.1 46 79 40.90 -73.90 37.80 -122.40
r 3.0766 1 2 tcp 9040 ------- 2 1.0 2.1 33 56 40.90 -73.90 37.80 -122.40
+ 3.0766 2 1 ack 40 ------- 2 2.1 1.0 33 80 37.80 -122.40 40.90 -73.90
- 3.0766 2 1 ack 40 ------- 2 2.1 1.0 33 80 37.80 -122.40 40.90 -73.90
- 3.0770 1 2 tcp 9040 ------- 2 1.0 2.1 41 69 40.90 -73.90 37.80 -122.40
r 3.1127 2 1 ack 40 ------- 2 2.1 1.0 27 68 37.80 -122.40 40.90 -73.90
+ 3.1127 1 2 tcp 9040 ------- 2 1.0 2.1 47 81 40.90 -73.90 37.80 -122.40
r 3.1128 1 2 tcp 9040 ------- 2 1.0 2.1 34 57 40.90 -73.90 37.80 -122.40
+ 3.1128 2 1 ack 40 ------- 2 2.1 1.0 34 82 37.80 -122.40 40.90 -73.90
- 3.1128 2 1 ack 40 ------- 2 2.1 1.0 34 82 37.80 -122.40 40.90 -73.90
- 3.1132 1 2 tcp 9040 ------- 2 1.0 2.1 42 71 40.90 -73.90 37.80 -122.40
r 3.1489 2 1 ack 40 ------- 2 2.1 1.0 28 70 37.80 -122.40 40.90 -73.90
+ 3.1489 1 2 tcp 9040 ------- 2 1.0 2.1 48 83 40.90 -73.90 37.80 -122.40
r 3.1491 1 2 tcp 9040 ------- 2 1.0 2.1 35 59 40.90 -73.90 37.80 -122.40
+ 3.1491 2 1 ack 40 ------- 2 2.1 1.0 35 84 37.80 -122.40 40.90 -73.90
- 3.1491 2 1 ack 40 ------- 2 2.1 1.0 35 84 37.80 -122.40 40.90 -73.90
- 3.1495 1 2 tcp 9040 ------- 2 1.0 2.1 43 73 40.90 -73.90 37.80 -122.40
r 3.1851 2 1 ack 40 ------- 2 2.1 1.0 29 72 37.80 -122.40 40.90 -73.90
+ 3.1851 1 2 tcp 9040 ------- 2 1.0 2.1 49 85 40.90 -73.90 37.80 -122.40
r 3.1853 1 2 tcp 9040 ------- 2 1.0 2.1 36 60 40.90 -73.90 37.80 -122.40
+ 3.1853 2 1 ack 40 ------- 2 2.1 1.0 36 86 37.80 -122.40 40.90 -73.90
- 3.1853 2 1 ack 40 ------- 2 2.1 1.0 36 86 37.80 -122.40 40.90 -73.90
- 3.1857 1 2 tcp 9040 ------- 2 1.0 2.1 44 75 40.90 -73.90 37.80 -122.40
r 3.2213 2 1 ack 40 ------- 2 2.1 1.0 30 74 37.80 -122.40 40.90 -73.90
+ 3.2213 1 2 tcp 9040 ------- 2 1.0 2.1 50 87 40.90 -73.90 37.80 -122.40
r 3.2215 1 2 tcp 9040 ------- 2 1.0 2.1 37 62 40.90 -73.90 37.80 -122.40
+ 3.2215 2 1 ack 40 ------- 2 2.1 1.0 37 88 37.80 -122.40 40.90 -73.90
- 3.2215 2 1 ack 40 ------- 2 2.1 1.0 37 88 37.80 -122.40 40.90 -73.90
- 3.2219 1 2 tcp 9040 ------- 2 1.0 2.1 45 77 40.90 -73.90 37.80 -122.40
r 3.2576 2 1 ack 40 ------- 2 2.1 1.0 31 76 37.80 -122.40 40.90 -73.90
+ 3.2576 1 2 tcp 9040 ------- 2 1.0 2.1 51 89 40.90 -73.90 37.80 -122.40
r 3.2577 1 2 tcp 9040 ------- 2 1.0 2.1 38 63 40.90 -73.90 37.80 -122.40
+ 3.2577 2 1 ack 40 ------- 2 2.1 1.0 38 90 37.80 -122.40 40.90 -73.90
- 3.2577 2 1 ack 40 ------- 2 2.1 1.0 38 90 37.80 -122.40 40.90 -73.90
- 3.2581 1 2 tcp 9040 ------- 2 1.0 2.1 46 79 40.90 -73.90 37.80 -122.40
r 3.2938 2 1 ack 40 ------- 2 2.1 1.0 32 78 37.80 -122.40 40.90 -73.90
+ 3.2938 1 2 tcp 9040 ------- 2 1.0 2.1 52 91 40.90 -73.90 37.80 -122.40
r 3.2940 1 2 tcp 9040 ------- 2 1.0 2.1 39 65 40.90 -73.90 37.80 -122.40
+ 3.2940 2 1 ack 40 ------- 2 2.1 1.0 39 92 37.80 -122.40 40.90 -73.90
- 3.2940 2 1 ack 40 ------- 2 2.1 1.0 39 92 37.80 -122.40 40.90 -73.90
- 3.2944 1 2 tcp 9040 ------- 2 1.0 2.1 47 81 40.90 -73.90 37.80 -122.40
r 3.3300 2 1 ack 40 ------- 2 2.1 1.0 33 80 37.80 -122.40 40.90 -73.90
+ 3.3300 1 2 tcp 9040 ------- 2 1.0 2.1 53 93 40.90 -73.90 37.80 -122.40
r 3.3302 1 2 tcp 9040 ------- 2 1.0 2.1 40 67 40.90 -73.90 37.80 -122.40
+ 3.3302 2 1 ack 40 ------- 2 2.1 1.0 40 94 37.80 -122.40 40.90 -73.90
- 3.3302 2 1 ack 40 ------- 2 2.1 1.0 40 94 37.80 -122.40 40.90 -73.90
- 3.3306 1 2 tcp 9040 ------- 2 1.0 2.1 48 83 40.90 -73.90 37.80 -122.40
r 3.3662 2 1 ack 40 ------- 2 2.1 1.0 34 82 37.80 -122.40 40.90 -73.90
+ 3.3662 1 2 tcp 9040 ------- 2 1.0 2.1 54 95 40.90 -73.90 37.80 -122.40
r 3.3664 1 2 tcp 9040 ------- 2 1.0 2.1 41 69 40.90 -73.90 37.80 -122.40
+ 3.3664 2 1 ack 40 ------- 2 2.1 1.0 41 96 37.80 -122.40 40.90 -73.90
- 3.3664 2 1 ack 40 ------- 2 2.1 1.0 41 96 37.80 -122.40 40.90 -73.90
- 3.3668 1 2 tcp 9040 ------- 2 1.0 2.1 49 85 40.90 -73.90 37.80 -122.40
r 3.4025 2 1 ack 40 ------- 2 2.1 1.0 35 84 37.80 -122.40 40.90 -73.90
+ 3.4025 1 2 tcp 9040 ------- 2 1.0 2.1 55 97 40.90 -73.90 37.80 -122.40
r 3.4026 1 2 tcp 9040 ------- 2 1.0 2.1 42 71 40.90 -73.90 37.80 -122.40
+ 3.4026 2 1 ack 40 ------- 2 2.1 1.0 42 98 37.80 -122.40 40.90 -73.90
- 3.4026 2 1 ack 40 ------- 2 2.1 1.0 42 98 37.80 -122.40 40.90 -73.90
- 3.4030 1 2 tcp 9040 ------- 2 1.0 2.1 50 87 40.90 -73.90 37.80 -122.40
r 3.4387 2 1 ack 40 ------- 2 2.1 1.0 36 86 37.80 -122.40 40.90 -73.90
+ 3.4387 1 2 tcp 9040 ------- 2 1.0 2.1 56 99 40.90 -73.90 37.80 -122.40
r 3.4389 1 2 tcp 9040 ------- 2 1.0 2.1 43 73 40.90 -73.90 37.80 -122.40
+ 3.4389 2 1 ack 40 ------- 2 2.1 1.0 43 100 37.80 -122.40 40.90 -73.90
- 3.4389 2 1 ack 40 ------- 2 2.1 1.0 43 100 37.80 -122.40 40.90 -73.90
- 3.4392 1 2 tcp 9040 ------- 2 1.0 2.1 51 89 40.90 -73.90 37.80 -122.40
r 3.4749 2 1 ack 40 ------- 2 2.1 1.0 37 88 37.80 -122.40 40.90 -73.90
+ 3.4749 1 2 tcp 9040 ------- 2 1.0 2.1 57 101 40.90 -73.90 37.80 -122.40
r 3.4751 1 2 tcp 9040 ------- 2 1.0 2.1 44 75 40.90 -73.90 37.80 -122.40
+ 3.4751 2 1 ack 40 ------- 2 2.1 1.0 44 102 37.80 -122.40 40.90 -73.90
- 3.4751 2 1 ack 40 ------- 2 2.1 1.0 44 102 37.80 -122.40 40.90 -73.90
- 3.4755 1 2 tcp 9040 ------- 2 1.0 2.1 52 91 40.90 -73.90 37.80 -122.40
r 3.5111 2 1 ack 40 ------- 2 2.1 1.0 38 90 37.80 -122.40 40.90 -73.90
+ 3.5111 1 2 tcp 9040 ------- 2 1.0 2.1 58 103 40.90 -73.90 37.80 -122.40
r 3.5113 1 2 tcp 9040 ------- 2 1.0 2.1 45 77 40.90 -73.90 37.80 -122.40
+ 3.5113 2 1 ack 40 ------- 2 2.1 1.0 45 104 37.80 -122.40 40.90 -73.90
- 3.5113 2 1 ack 40 ------- 2 2.1 1.0 45 104 37.80 -122.40 40.90 -73.90
- 3.5117 1 2 tcp 9040 ------- 2 1.0 2.1 53 93 40.90 -73.90 37.80 -122.40
r 3.5474 2 1 ack 40 ------- 2 2.1 1.0 39 92 37.80 -122.40 40.90 -73.90
+ 3.5474 1 2 tcp 9040 ------- 2 1.0 2.1 59 105 40.90 -73.90 37.80 -122.40
r 3.5475 1 2 tcp 9040 ------- 2 1.0 2.1 46 79 40.90 -73.90 37.80 -122.40
+ 3.5475 2 1 ack 40 ------- 2 2.1 1.0 46 106 37.80 -122.40 40.90 -73.90
- 3.5475 2 1 ack 40 ------- 2 2.1 1.0 46 106 37.80 -122.40 40.90 -73.90
- 3.5479 1 2 tcp 9040 ------- 2 1.0 2.1 54 95 40.90 -73.90 37.80 -122.40
r 3.5836 2 1 ack 40 ------- 2 2.1 1.0 40 94 37.80 -122.40 40.90 -73.90
+ 3.5836 1 2 tcp 9040 ------- 2 1.0 2.1 60 107 40.90 -73.90 37.80 -122.40
r 3.5837 1 2 tcp 9040 ------- 2 1.0 2.1 47 81 40.90 -73.90 37.80 -122.40
+ 3.5837 2 1 ack 40 ------- 2 2.1 1.0 47 108 37.80 -122.40 40.90 -73.90
- 3.5837 2 1 ack 40 ------- 2 2.1 1.0 47 108 37.80 -122.40 40.90 -73.90
- 3.5841 1 2 tcp 9040 ------- 2 1.0 2.1 55 97 40.90 -73.90 37.80 -122.40
r 3.6198 2 1 ack 40 ------- 2 2.1 1.0 41 96 37.80 -122.40 40.90 -73.90
+ 3.6198 1 2 tcp 9040 ------- 2 1.0 2.1 61 109 40.90 -73.90 37.80 -122.40
r 3.6200 1 2 tcp 9040 ------- 2 1.0 2.1 48 83 40.90 -73.90 37.80 -122.40
+ 3.6200 2 1 ack 40 ------- 2 2.1 1.0 48 110 37.80 -122.40 40.90 -73.90
- 3.6200 2 1 ack 40 ------- 2 2.1 1.0 48 110 37.80 -122.40 40.90 -73.90
- 3.6204 1 2 tcp 9040 ------- 2 1.0 2.1 56 99 40.90 -73.90 37.80 -122.40
r 3.6560 2 1 ack 40 ------- 2 2.1 1.0 42 98 37.80 -122.40 40.90 -73.90
+ 3.6560 1 2 tcp 9040 ------- 2 1.0 2.1 62 111 40.90 -73.90 37.80 -122.40
r 3.6562 1 2 tcp 9040 ------- 2 1.0 2.1 49 85 40.90 -73.90 37.80 -122.40
+ 3.6562 2 1 ack 40 ------- 2 2.1 1.0 49 112 37.80 -122.40 40.90 -73.90
- 3.6562 2 1 ack 40 ------- 2 2.1 1.0 49 112 37.80 -122.40 40.90 -73.90
- 3.6566 1 2 tcp 9040 ------- 2 1.0 2.1 57 101 40.90 -73.90 37.80 -122.40
r 3.6923 2 1 ack 40 ------- 2 2.1 1.0 43 100 37.80 -122.40 40.90 -73.90
+ 3.6923 1 2 tcp 9040 ------- 2 1.0 2.1 63 113 40.90 -73.90 37.80 -122.40
r 3.6924 1 2 tcp 9040 ------- 2 1.0 2.1 50 87 40.90 -73.90 37.80 -122.40
+ 3.6924 2 1 ack 40 ------- 2 2.1 1.0 50 114 37.80 -122.40 40.90 -73.90
- 3.6924 2 1 ack 40 ------- 2 2.1 1.0 50 114 37.80 -122.40 40.90 -73.90
- 3.6928 1 2 tcp 9040 ------- 2 1.0 2.1 58 103 40.90 -73.90 37.80 -122.40
r 3.7285 2 1 ack 40 ------- 2 2.1 1.0 44 102 37.80 -122.40 40.90 -73.90
+ 3.7285 1 2 tcp 9040 ------- 2 1.0 2.1 64 115 40.90 -73.90 37.80 -122.40
r 3.7286 1 2 tcp 9040 ------- 2 1.0 2.1 51 89 40.90 -73.90 37.80 -122.40
+ 3.7286 2 1 ack 40 ------- 2 2.1 1.0 51 116 37.80 -122.40 40.90 -73.90
- 3.7286 2 1 ack 40 ------- 2 2.1 1.0 51 116 37.80 -122.40 40.90 -73.90
- 3.7290 1 2 tcp 9040 ------- 2 1.0 2.1 59 105 40.90 -73.90 37.80 -122.40
r 3.7647 2 1 ack 40 ------- 2 2.1 1.0 45 104 37.80 -122.40 40.90 -73.90
+ 3.7647 1 2 tcp 9040 ------- 2 1.0 2.1 65 117 40.90 -73.90 37.80 -122.40
r 3.7649 1 2 tcp 9040 ------- 2 1.0 2.1 52 91 40.90 -73.90 37.80 -122.40
+ 3.7649 2 1 ack 40 ------- 2 2.1 1.0 52 118 37.80 -122.40 40.90 -73.90
- 3.7649 2 1 ack 40 ------- 2 2.1 1.0 52 118 37.80 -122.40 40.90 -73.90
- 3.7653 1 2 tcp 9040 ------- 2 1.0 2.1 60 107 40.90 -73.90 37.80 -122.40
r 3.8009 2 1 ack 40 ------- 2 2.1 1.0 46 106 37.80 -122.40 40.90 -73.90
+ 3.8009 1 2 tcp 9040 ------- 2 1.0 2.1 66 119 40.90 -73.90 37.80 -122.40
r 3.8011 1 2 tcp 9040 ------- 2 1.0 2.1 53 93 40.90 -73.90 37.80 -122.40
+ 3.8011 2 1 ack 40 ------- 2 2.1 1.0 53 120 37.80 -122.40 40.90 -73.90
- 3.8011 2 1 ack 40 ------- 2 2.1 1.0 53 120 37.80 -122.40 40.90 -73.90
- 3.8015 1 2 tcp 9040 ------- 2 1.0 2.1 61 109 40.90 -73.90 37.80 -122.40
r 3.8371 2 1 ack 40 ------- 2 2.1 1.0 47 108 37.80 -122.40 40.90 -73.90
+ 3.8371 1 2 tcp 9040 ------- 2 1.0 2.1 67 121 40.90 -73.90 37.80 -122.40
r 3.8373 1 2 tcp 9040 ------- 2 1.0 2.1 54 95 40.90 -73.90 37.80 -122.40
+ 3.8373 2 1 ack 40 ------- 2 2.1 1.0 54 122 37.80 -122.40 40.90 -73.90
- 3.8373 2 1 ack 40 ------- 2 2.1 1.0 54 122 37.80 -122.40 40.90 -73.90
- 3.8377 1 2 tcp 9040 ------- 2 1.0 2.1 62 111 40.90 -73.90 37.80 -122.40
r 3.8734 2 1 ack 40 ------- 2 2.1 1.0 48 110 37.80 -122.40 40.90 -73.90
+ 3.8734 1 2 tcp 9040 ------- 2 1.0 2.1 68 123 40.90 -73.90 37.80 -122.40
r 3.8735 1 2 tcp 9040 ------- 2 1.0 2.1 55 97 40.90 -73.90 37.80 -122.40
+ 3.8735 2 1 ack 40 ------- 2 2.1 1.0 55 124 37.80 -122.40 40.90 -73.90
- 3.8735 2 1 ack 40 ------- 2 2.1 1.0 55 124 37.80 -122.40 40.90 -73.90
- 3.8739 1 2 tcp 9040 ------- 2 1.0 2.1 63 113 40.90 -73.90 37.80 -122.40
r 3.9096 2 1 ack 40 ------- 2 2.1 1.0 49 112 37.80 -122.40 40.90 -73.90
+ 3.9096 1 2 tcp 9040 ------- 2 1.0 2.1 69 125 40.90 -73.90 37.80 -122.40
r 3.9098 1 2 tcp 9040 ------- 2 1.0 2.1 56 99 40.90 -73.90 37.80 -122.40
+ 3.9098 2 1 ack 40 ------- 2 2.1 1.0 56 126 37.80 -122.40 40.90 -73.90
- 3.9098 2 1 ack 40 ------- 2 2.1 1.0 56 126 37.80 -122.40 40.90 -73.90
- 3.9102 1 2 tcp 9040 ------- 2 1.0 2.1 64 115 40.90 -73.90 37.80 -122.40
r 3.9458 2 1 ack 40 ------- 2 2.1 1.0 50 114 37.80 -122.40 40.90 -73.90
+ 3.9458 1 2 tcp 9040 ------- 2 1.0 2.1 70 127 40.90 -73.90 37.80 -122.40
r 3.9460 1 2 tcp 9040 ------- 2 1.0 2.1 57 101 40.90 -73.90 37.80 -122.40
+ 3.9460 2 1 ack 40 ------- 2 2.1 1.0 57 128 37.80 -122.40 40.90 -73.90
- 3.9460 2 1 ack 40 ------- 2 2.1 1.0 57 128 37.80 -122.40 40.90 -73.90
- 3.9464 1 2 tcp 9040 ------- 2 1.0 2.1 65 117 40.90 -73.90 37.80 -122.40
r 3.9820 2 1 ack 40 ------- 2 2.1 1.0 51 116 37.80 -122.40 40.90 -73.90
+ 3.9820 1 2 tcp 9040 ------- 2 1.0 2.1 71 129 40.90 -73.90 37.80 -122.40
r 3.9822 1 2 tcp 9040 ------- 2 1.0 2.1 58 103 40.90 -73.90 37.80 -122.40
+ 3.9822 2 1 ack 40 ------- 2 2.1 1.0 58 130 37.80 -122.40 40.90 -73.90
- 3.9822 2 1 ack 40 ------- 2 2.1 1.0 58 130 37.80 -122.40 40.90 -73.90
- 3.9826 1 2 tcp 9040 ------- 2 1.0 2.1 66 119 40.90 -73.90 37.80 -122.40
r 4.0183 2 1 ack 40 ------- 2 2.1 1.0 52 118 37.80 -122.40 40.90 -73.90
+ 4.0183 1 2 tcp 9040 ------- 2 1.0 2.1 72 131 40.90 -73.90 37.80 -122.40
r 4.0184 1 2 tcp 9040 ------- 2 1.0 2.1 59 105 40.90 -73.90 37.80 -122.40
+ 4.0184 2 1 ack 40 ------- 2 2.1 1.0 59 132 37.80 -122.40 40.90 -73.90
- 4.0184 2 1 ack 40 ------- 2 2.1 1.0 59 132 37.80 -122.40 40.90 -73.90
- 4.0188 1 2 tcp 9040 ------- 2 1.0 2.1 67 121 40.90 -73.90 37.80 -122.40
r 4.0545 2 1 ack 40 ------- 2 2.1 1.0 53 120 37.80 -122.40 40.90 -73.90
+ 4.0545 1 2 tcp 9040 ------- 2 1.0 2.1 73 133 40.90 -73.90 37.80 -122.40
r 4.0547 1 2 tcp 9040 ------- 2 1.0 2.1 60 107 40.90 -73.90 37.80 -122.40
+ 4.0547 2 1 ack 40 ------- 2 2.1 1.0 60 134 37.80 -122.40 40.90 -73.90
- 4.0547 2 1 ack 40 ------- 2 2.1 1.0 60 134 37.80 -122.40 40.90 -73.90
- 4.0551 1 2 tcp 9040 ------- 2 1.0 2.1 68 123 40.90 -73.90 37.80 -122.40
r 4.0907 2 1 ack 40 ------- 2 2.1 1.0 54 122 37.80 -122.40 40.90 -73.90
+ 4.0907 1 2 tcp 9040 ------- 2 1.0 2.1 74 135 40.90 -73.90 37.80 -122.40
r 4.0909 1 2 tcp 9040 ------- 2 1.0 2.1 61 109 40.90 -73.90 37.80 -122.40
+ 4.0909 2 1 ack 40 ------- 2 2.1 1.0 61 136 37.80 -122.40 40.90 -73.90
- 4.0909 2 1 ack 40 ------- 2 2.1 1.0 61 136 37.80 -122.40 40.90 -73.90
- 4.0913 1 2 tcp 9040 ------- 2 1.0 2.1 69 125 40.90 -73.90 37.80 -122.40
r 4.1269 2 1 ack 40 ------- 2 2.1 1.0 55 124 37.80 -122.40 40.90 -73.90
+ 4.1269 1 2 tcp 9040 ------- 2 1.0 2.1 75 137 40.90 -73.90 37.80 -122.40
r 4.1271 1 2 tcp 9040 ------- 2 1.0 2.1 62 111 40.90 -73.90 37.80 -122.40
+ 4.1271 2 1 ack 40 ------- 2 2.1 1.0 62 138 37.80 -122.40 40.90 -73.90
- 4.1271 2 1 ack 40 ------- 2 2.1 1.0 62 138 37.80 -122.40 40.90 -73.90
- 4.1275 1 2 tcp 9040 ------- 2 1.0 2.1 70 127 40.90 -73.90 37.80 -122.40
r 4.1632 2 1 ack 40 ------- 2 2.1 1.0 56 126 37.80 -122.40 40.90 -73.90
+ 4.1632 1 2 tcp 9040 ------- 2 1.0 2.1 76 139 40.90 -73.90 37.80 -122.40
r 4.1633 1 2 tcp 9040 ------- 2 1.0 2.1 63 113 40.90 -73.90 37.80 -122.40
+ 4.1633 2 1 ack 40 ------- 2 2.1 1.0 63 140 37.80 -122.40 40.90 -73.90
- 4.1633 2 1 ack 40 ------- 2 2.1 1.0 63 140 37.80 -122.40 40.90 -73.90
- 4.1637 1 2 tcp 9040 ------- 2 1.0 2.1 71 129 40.90 -73.90 37.80 -122.40
r 4.1994 2 1 ack 40 ------- 2 2.1 1.0 57 128 37.80 -122.40 40.90 -73.90
+ 4.1994 1 2 tcp 9040 ------- 2 1.0 2.1 77 141 40.90 -73.90 37.80 -122.40
r 4.1996 1 2 tcp 9040 ------- 2 1.0 2.1 64 115 40.90 -73.90 37.80 -122.40
+ 4.1996 2 1 ack 40 ------- 2 2.1 1.0 64 142 37.80 -122.40 40.90 -73.90
- 4.1996 2 1 ack 40 ------- 2 2.1 1.0 64 142 37.80 -122.40 40.90 -73.90
- 4.2000 1 2 tcp 9040 ------- 2 1.0 2.1 72 131 40.90 -73.90 37.80 -122.40
r 4.2356 2 1 ack 40 ------- 2 2.1 1.0 58 130 37.80 -122.40 40.90 -73.90
+ 4.2356 1 2 tcp 9040 ------- 2 1.0 2.1 78 143 40.90 -73.90 37.80 -122.40
r 4.2358 1 2 tcp 9040 ------- 2 1.0 2.1 65 117 40.90 -73.90 37.80 -122.40
+ 4.2358 2 1 ack 40 ------- 2 2.1 1.0 65 144 37.80 -122.40 40.90 -73.90
- 4.2358 2 1 ack 40 ------- 2 2.1 1.0 65 144 37.80 -122.40 40.90 -73.90
- 4.2362 1 2 tcp 9040 ------- 2 1.0 2.1 73 133 40.90 -73.90 37.80 -122.40
r 4.2718 2 1 ack 40 ------- 2 2.1 1.0 59 132 37.80 -122.40 40.90 -73.90
+ 4.2718 1 2 tcp 9040 ------- 2 1.0 2.1 79 145 40.90 -73.90 37.80 -122.40
r 4.2720 1 2 tcp 9040 ------- 2 1.0 2.1 66 119 40.90 -73.90 37.80 -122.40
+ 4.2720 2 1 ack 40 ------- 2 2.1 1.0 66 146 37.80 -122.40 40.90 -73.90
- 4.2720 2 1 ack 40 ------- 2 2.1 1.0 66 146 37.80 -122.40 40.90 -73.90
- 4.2724 1 2 tcp 9040 ------- 2 1.0 2.1 74 135 40.90 -73.90 37.80 -122.40