+ 0.1 1 2 cbr 210 ------- 2 1.0 3.1 0 0
- 0.1 1 2 cbr 210 ------- 2 1.0 3.1 0 0
+ 0.10168 1 2 cbr 210 ------- 2 1.0 3.1 1 1
- 0.10168 1 2 cbr 210 ------- 2 1.0 3.1 1 1
+ 0.10336 1 2 cbr 210 ------- 2 1.0 3.1 2 2
- 0.10336 1 2 cbr 210 ------- 2 1.0 3.1 2 2
+ 0.10504 1 2 cbr 210 ------- 2 1.0 3.1 3 3
- 0.10504 1 2 cbr 210 ------- 2 1.0 3.1 3 3
+ 0.10672 1 2 cbr 210 ------- 2 1.0 3.1 4 4
- 0.10672 1 2 cbr 210 ------- 2 1.0 3.1 4 4
+ 0.1084 1 2 cbr 210 ------- 2 1.0 3.1 5 5
- 0.1084 1 2 cbr 210 ------- 2 1.0 3.1 5 5
+ 0.11008 1 2 cbr 210 ------- 2 1.0 3.1 6 6
- 0.11008 1 2 cbr 210 ------- 2 1.0 3.1 6 6
r 0.11084 1 2 cbr 210 ------- 2 1.0 3.1 0 0
+ 0.11084 2 3 cbr 210 ------- 2 1.0 3.1 0 0
- 0.11084 2 3 cbr 210 ------- 2 1.0 3.1 0 0
+ 0.11176 1 2 cbr 210 ------- 2 1.0 3.1 7 7
- 0.11176 1 2 cbr 210 ------- 2 1.0 3.1 7 7
r 0.11252 1 2 cbr 210 ------- 2 1.0 3.1 1 1
+ 0.11252 2 3 cbr 210 ------- 2 1.0 3.1 1 1
- 0.11252 2 3 cbr 210 ------- 2 1.0 3.1 1 1
+ 0.11344 1 2 cbr 210 ------- 2 1.0 3.1 8 8
- 0.11344 1 2 cbr 210 ------- 2 1.0 3.1 8 8
r 0.1142 1 2 cbr 210 ------- 2 1.0 3.1 2 2
+ 0.1142 2 3 cbr 210 ------- 2 1.0 3.1 2 2
- 0.1142 2 3 cbr 210 ------- 2 1.0 3.1 2 2
+ 0.11512 1 2 cbr 210 ------- 2 1.0 3.1 9 9
- 0.11512 1 2 cbr 210 ------- 2 1.0 3.1 9 9
r 0.11588 1 2 cbr 210 ------- 2 1.0 3.1 3 3
+ 0.11588 2 3 cbr 210 ------- 2 1.0 3.1 3 3
- 0.11588 2 3 cbr 210 ------- 2 1.0 3.1 3 3
+ 0.1168 1 2 cbr 210 ------- 2 1.0 3.1 10 10
- 0.1168 1 2 cbr 210 ------- 2 1.0 3.1 10 10
r 0.11756 1 2 cbr 210 ------- 2 1.0 3.1 4 4
+ 0.11756 2 3 cbr 210 ------- 2 1.0 3.1 4 4
- 0.11756 2 3 cbr 210 ------- 2 1.0 3.1 4 4
+ 0.11848 1 2 cbr 210 ------- 2 1.0 3.1 11 11
- 0.11848 1 2 cbr 210 ------- 2 1.0 3.1 11 11
r 0.11924 1 2 cbr 210 ------- 2 1.0 3.1 5 5
+ 0.11924 2 3 cbr 210 ------- 2 1.0 3.1 5 5
- 0.11924 2 3 cbr 210 ------- 2 1.0 3.1 5 5
+ 0.12016 1 2 cbr 210 ------- 2 1.0 3.1 12 12
- 0.12016 1 2 cbr 210 ------- 2 1.0 3.1 12 12
r 0.12092 1 2 cbr 210 ------- 2 1.0 3.1 6 6
+ 0.12092 2 3 cbr 210 ------- 2 1.0 3.1 6 6
- 0.12092 2 3 cbr 210 ------- 2 1.0 3.1 6 6
+ 0.12184 1 2 cbr 210 ------- 2 1.0 3.1 13 13
- 0.12184 1 2 cbr 210 ------- 2 1.0 3.1 13 13
r 0.1226 1 2 cbr 210 ------- 2 1.0 3.1 7 7
+ 0.1226 2 3 cbr 210 ------- 2 1.0 3.1 7 7
- 0.1226 2 3 cbr 210 ------- 2 1.0 3.1 7 7
+ 0.12352 1 2 cbr 210 ------- 2 1.0 3.1 14 14
- 0.12352 1 2 cbr 210 ------- 2 1.0 3.1 14 14
r 0.12428 1 2 cbr 210 ------- 2 1.0 3.1 8 8
+ 0.12428 2 3 cbr 210 ------- 2 1.0 3.1 8 8
- 0.12428 2 3 cbr 210 ------- 2 1.0 3.1 8 8
+ 0.1252 1 2 cbr 210 ------- 2 1.0 3.1 15 15
- 0.1252 1 2 cbr 210 ------- 2 1.0 3.1 15 15
r 0.12596 1 2 cbr 210 ------- 2 1.0 3.1 9 9
+ 0.12596 2 3 cbr 210 ------- 2 1.0 3.1 9 9
- 0.12596 2 3 cbr 210 ------- 2 1.0 3.1 9 9
+ 0.12688 1 2 cbr 210 ------- 2 1.0 3.1 16 16
- 0.12688 1 2 cbr 210 ------- 2 1.0 3.1 16 16
r 0.12764 1 2 cbr 210 ------- 2 1.0 3.1 10 10
+ 0.12764 2 3 cbr 210 ------- 2 1.0 3.1 10 10
- 0.12764 2 3 cbr 210 ------- 2 1.0 3.1 10 10
+ 0.12856 1 2 cbr 210 ------- 2 1.0 3.1 17 17
- 0.12856 1 2 cbr 210 ------- 2 1.0 3.1 17 17
r 0.12932 1 2 cbr 210 ------- 2 1.0 3.1 11 11
+ 0.12932 2 3 cbr 210 ------- 2 1.0 3.1 11 11
- 0.12932 2 3 cbr 210 ------- 2 1.0 3.1 11 11
+ 0.13024 1 2 cbr 210 ------- 2 1.0 3.1 18 18
- 0.13024 1 2 cbr 210 ------- 2 1.0 3.1 18 18
r 0.131 1 2 cbr 210 ------- 2 1.0 3.1 12 12
+ 0.131 2 3 cbr 210 ------- 2 1.0 3.1 12 12
- 0.131 2 3 cbr 210 ------- 2 1.0 3.1 12 12
r 0.131828 2 3 cbr 210 ------- 2 1.0 3.1 0 0
+ 0.13192 1 2 cbr 210 ------- 2 1.0 3.1 19 19
- 0.13192 1 2 cbr 210 ------- 2 1.0 3.1 19 19
r 0.13268 1 2 cbr 210 ------- 2 1.0 3.1 13 13
+ 0.13268 2 3 cbr 210 ------- 2 1.0 3.1 13 13
- 0.13268 2 3 cbr 210 ------- 2 1.0 3.1 13 13
r 0.133508 2 3 cbr 210 ------- 2 1.0 3.1 1 1
+ 0.1336 1 2 cbr 210 ------- 2 1.0 3.1 20 20
- 0.1336 1 2 cbr 210 ------- 2 1.0 3.1 20 20
r 0.13436 1 2 cbr 210 ------- 2 1.0 3.1 14 14
+ 0.13436 2 3 cbr 210 ------- 2 1.0 3.1 14 14
- 0.13436 2 3 cbr 210 ------- 2 1.0 3.1 14 14
r 0.135188 2 3 cbr 210 ------- 2 1.0 3.1 2 2
+ 0.13528 1 2 cbr 210 ------- 2 1.0 3.1 21 21
- 0.13528 1 2 cbr 210 ------- 2 1.0 3.1 21 21
r 0.13604 1 2 cbr 210 ------- 2 1.0 3.1 15 15
+ 0.13604 2 3 cbr 210 ------- 2 1.0 3.1 15 15
- 0.13604 2 3 cbr 210 ------- 2 1.0 3.1 15 15
r 0.136868 2 3 cbr 210 ------- 2 1.0 3.1 3 3
+ 0.13696 1 2 cbr 210 ------- 2 1.0 3.1 22 22
- 0.13696 1 2 cbr 210 ------- 2 1.0 3.1 22 22
r 0.13772 1 2 cbr 210 ------- 2 1.0 3.1 16 16
+ 0.13772 2 3 cbr 210 ------- 2 1.0 3.1 16 16
- 0.13772 2 3 cbr 210 ------- 2 1.0 3.1 16 16
r 0.138548 2 3 cbr 210 ------- 2 1.0 3.1 4 4
+ 0.13864 1 2 cbr 210 ------- 2 1.0 3.1 23 23
- 0.13864 1 2 cbr 210 ------- 2 1.0 3.1 23 23
r 0.1394 1 2 cbr 210 ------- 2 1.0 3.1 17 17
+ 0.1394 2 3 cbr 210 ------- 2 1.0 3.1 17 17
- 0.1394 2 3 cbr 210 ------- 2 1.0 3.1 17 17
r 0.140228 2 3 cbr 210 ------- 2 1.0 3.1 5 5
+ 0.14032 1 2 cbr 210 ------- 2 1.0 3.1 24 24
- 0.14032 1 2 cbr 210 ------- 2 1.0 3.1 24 24
r 0.14108 1 2 cbr 210 ------- 2 1.0 3.1 18 18
+ 0.14108 2 3 cbr 210 ------- 2 1.0 3.1 18 18
- 0.14108 2 3 cbr 210 ------- 2 1.0 3.1 18 18
r 0.141908 2 3 cbr 210 ------- 2 1.0 3.1 6 6
+ 0.142 1 2 cbr 210 ------- 2 1.0 3.1 25 25
- 0.142 1 2 cbr 210 ------- 2 1.0 3.1 25 25
r 0.14276 1 2 cbr 210 ------- 2 1.0 3.1 19 19
+ 0.14276 2 3 cbr 210 ------- 2 1.0 3.1 19 19
- 0.14276 2 3 cbr 210 ------- 2 1.0 3.1 19 19
r 0.143588 2 3 cbr 210 ------- 2 1.0 3.1 7 7
+ 0.14368 1 2 cbr 210 ------- 2 1.0 3.1 26 26
- 0.14368 1 2 cbr 210 ------- 2 1.0 3.1 26 26
r 0.14444 1 2 cbr 210 ------- 2 1.0 3.1 20 20
+ 0.14444 2 3 cbr 210 ------- 2 1.0 3.1 20 20
- 0.14444 2 3 cbr 210 ------- 2 1.0 3.1 20 20
r 0.145268 2 3 cbr 210 ------- 2 1.0 3.1 8 8
+ 0.14536 1 2 cbr 210 ------- 2 1.0 3.1 27 27
- 0.14536 1 2 cbr 210 ------- 2 1.0 3.1 27 27
r 0.14612 1 2 cbr 210 ------- 2 1.0 3.1 21 21
+ 0.14612 2 3 cbr 210 ------- 2 1.0 3.1 21 21
- 0.14612 2 3 cbr 210 ------- 2 1.0 3.1 21 21
r 0.146948 2 3 cbr 210 ------- 2 1.0 3.1 9 9
+ 0.14704 1 2 cbr 210 ------- 2 1.0 3.1 28 28
- 0.14704 1 2 cbr 210 ------- 2 1.0 3.1 28 28
r 0.1478 1 2 cbr 210 ------- 2 1.0 3.1 22 22
+ 0.1478 2 3 cbr 210 ------- 2 1.0 3.1 22 22
- 0.1478 2 3 cbr 210 ------- 2 1.0 3.1 22 22
r 0.148628 2 3 cbr 210 ------- 2 1.0 3.1 10 10
+ 0.14872 1 2 cbr 210 ------- 2 1.0 3.1 29 29
- 0.14872 1 2 cbr 210 ------- 2 1.0 3.1 29 29
r 0.14948 1 2 cbr 210 ------- 2 1.0 3.1 23 23
+ 0.14948 2 3 cbr 210 ------- 2 1.0 3.1 23 23
- 0.14948 2 3 cbr 210 ------- 2 1.0 3.1 23 23
r 0.150308 2 3 cbr 210 ------- 2 1.0 3.1 11 11
+ 0.1504 1 2 cbr 210 ------- 2 1.0 3.1 30 30
- 0.1504 1 2 cbr 210 ------- 2 1.0 3.1 30 30
r 0.15116 1 2 cbr 210 ------- 2 1.0 3.1 24 24
+ 0.15116 2 3 cbr 210 ------- 2 1.0 3.1 24 24
- 0.15116 2 3 cbr 210 ------- 2 1.0 3.1 24 24
r 0.151988 2 3 cbr 210 ------- 2 1.0 3.1 12 12
+ 0.15208 1 2 cbr 210 ------- 2 1.0 3.1 31 31
- 0.15208 1 2 cbr 210 ------- 2 1.0 3.1 31 31
r 0.15284 1 2 cbr 210 ------- 2 1.0 3.1 25 25
+ 0.15284 2 3 cbr 210 ------- 2 1.0 3.1 25 25
- 0.15284 2 3 cbr 210 ------- 2 1.0 3.1 25 25
r 0.153668 2 3 cbr 210 ------- 2 1.0 3.1 13 13
+ 0.15376 1 2 cbr 210 ------- 2 1.0 3.1 32 32
- 0.15376 1 2 cbr 210 ------- 2 1.0 3.1 32 32
r 0.15452 1 2 cbr 210 ------- 2 1.0 3.1 26 26
+ 0.15452 2 3 cbr 210 ------- 2 1.0 3.1 26 26
- 0.15452 2 3 cbr 210 ------- 2 1.0 3.1 26 26
r 0.155348 2 3 cbr 210 ------- 2 1.0 3.1 14 14
+ 0.15544 1 2 cbr 210 ------- 2 1.0 3.1 33 33
- 0.15544 1 2 cbr 210 ------- 2 1.0 3.1 33 33
r 0.1562 1 2 cbr 210 ------- 2 1.0 3.1 27 27
+ 0.1562 2 3 cbr 210 ------- 2 1.0 3.1 27 27
- 0.1562 2 3 cbr 210 ------- 2 1.0 3.1 27 27
r 0.157028 2 3 cbr 210 ------- 2 1.0 3.1 15 15
+ 0.15712 1 2 cbr 210 ------- 2 1.0 3.1 34 34
- 0.15712 1 2 cbr 210 ------- 2 1.0 3.1 34 34
r 0.15788 1 2 cbr 210 ------- 2 1.0 3.1 28 28
+ 0.15788 2 3 cbr 210 ------- 2 1.0 3.1 28 28
- 0.15788 2 3 cbr 210 ------- 2 1.0 3.1 28 28
r 0.158708 2 3 cbr 210 ------- 2 1.0 3.1 16 16
+ 0.1588 1 2 cbr 210 ------- 2 1.0 3.1 35 35
- 0.1588 1 2 cbr 210 ------- 2 1.0 3.1 35 35
r 0.15956 1 2 cbr 210 ------- 2 1.0 3.1 29 29
+ 0.15956 2 3 cbr 210 ------- 2 1.0 3.1 29 29
- 0.15956 2 3 cbr 210 ------- 2 1.0 3.1 29 29
r 0.160388 2 3 cbr 210 ------- 2 1.0 3.1 17 17
+ 0.16048 1 2 cbr 210 ------- 2 1.0 3.1 36 36
- 0.16048 1 2 cbr 210 ------- 2 1.0 3.1 36 36
r 0.16124 1 2 cbr 210 ------- 2 1.0 3.1 30 30
+ 0.16124 2 3 cbr 210 ------- 2 1.0 3.1 30 30
- 0.16124 2 3 cbr 210 ------- 2 1.0 3.1 30 30
r 0.162068 2 3 cbr 210 ------- 2 1.0 3.1 18 18
+ 0.16216 1 2 cbr 210 ------- 2 1.0 3.1 37 37
- 0.16216 1 2 cbr 210 ------- 2 1.0 3.1 37 37
r 0.16292 1 2 cbr 210 ------- 2 1.0 3.1 31 31
+ 0.16292 2 3 cbr 210 ------- 2 1.0 3.1 31 31
- 0.16292 2 3 cbr 210 ------- 2 1.0 3.1 31 31
r 0.163748 2 3 cbr 210 ------- 2 1.0 3.1 19 19
+ 0.16384 1 2 cbr 210 ------- 2 1.0 3.1 38 38
- 0.16384 1 2 cbr 210 ------- 2 1.0 3.1 38 38
r 0.1646 1 2 cbr 210 ------- 2 1.0 3.1 32 32
+ 0.1646 2 3 cbr 210 ------- 2 1.0 3.1 32 32
- 0.1646 2 3 cbr 210 ------- 2 1.0 3.1 32 32
r 0.165428 2 3 cbr 210 ------- 2 1.0 3.1 20 20
+ 0.16552 1 2 cbr 210 ------- 2 1.0 3.1 39 39
- 0.16552 1 2 cbr 210 ------- 2 1.0 3.1 39 39
r 0.16628 1 2 cbr 210 ------- 2 1.0 3.1 33 33
+ 0.16628 2 3 cbr 210 ------- 2 1.0 3.1 33 33
- 0.16628 2 3 cbr 210 ------- 2 1.0 3.1 33 33
r 0.167108 2 3 cbr 210 ------- 2 1.0 3.1 21 21
+ 0.1672 1 2 cbr 210 ------- 2 1.0 3.1 40 40
- 0.1672 1 2 cbr 210 ------- 2 1.0 3.1 40 40
r 0.16796 1 2 cbr 210 ------- 2 1.0 3.1 34 34
+ 0.16796 2 3 cbr 210 ------- 2 1.0 3.1 34 34
- 0.16796 2 3 cbr 210 ------- 2 1.0 3.1 34 34
r 0.168788 2 3 cbr 210 ------- 2 1.0 3.1 22 22
+ 0.16888 1 2 cbr 210 ------- 2 1.0 3.1 41 41
- 0.16888 1 2 cbr 210 ------- 2 1.0 3.1 41 41
r 0.16964 1 2 cbr 210 ------- 2 1.0 3.1 35 35
+ 0.16964 2 3 cbr 210 ------- 2 1.0 3.1 35 35
- 0.16964 2 3 cbr 210 ------- 2 1.0 3.1 35 35
r 0.170468 2 3 cbr 210 ------- 2 1.0 3.1 23 23
+ 0.17056 1 2 cbr 210 ------- 2 1.0 3.1 42 42
- 0.17056 1 2 cbr 210 ------- 2 1.0 3.1 42 42
r 0.17132 1 2 cbr 210 ------- 2 1.0 3.1 36 36
+ 0.17132 2 3 cbr 210 ------- 2 1.0 3.1 36 36
- 0.17132 2 3 cbr 210 ------- 2 1.0 3.1 36 36
r 0.172148 2 3 cbr 210 ------- 2 1.0 3.1 24 24
+ 0.17224 1 2 cbr 210 ------- 2 1.0 3.1 43 43
- 0.17224 1 2 cbr 210 ------- 2 1.0 3.1 43 43
r 0.173 1 2 cbr 210 ------- 2 1.0 3.1 37 37
+ 0.173 2 3 cbr 210 ------- 2 1.0 3.1 37 37
- 0.173 2 3 cbr 210 ------- 2 1.0 3.1 37 37
r 0.173828 2 3 cbr 210 ------- 2 1.0 3.1 25 25
+ 0.17392 1 2 cbr 210 ------- 2 1.0 3.1 44 44
- 0.17392 1 2 cbr 210 ------- 2 1.0 3.1 44 44
r 0.17468 1 2 cbr 210 ------- 2 1.0 3.1 38 38
+ 0.17468 2 3 cbr 210 ------- 2 1.0 3.1 38 38
- 0.17468 2 3 cbr 210 ------- 2 1.0 3.1 38 38
r 0.175508 2 3 cbr 210 ------- 2 1.0 3.1 26 26
+ 0.1756 1 2 cbr 210 ------- 2 1.0 3.1 45 45
- 0.1756 1 2 cbr 210 ------- 2 1.0 3.1 45 45
r 0.17636 1 2 cbr 210 ------- 2 1.0 3.1 39 39
+ 0.17636 2 3 cbr 210 ------- 2 1.0 3.1 39 39
- 0.17636 2 3 cbr 210 ------- 2 1.0 3.1 39 39
r 0.177188 2 3 cbr 210 ------- 2 1.0 3.1 27 27
+ 0.17728 1 2 cbr 210 ------- 2 1.0 3.1 46 46
- 0.17728 1 2 cbr 210 ------- 2 1.0 3.1 46 46
r 0.17804 1 2 cbr 210 ------- 2 1.0 3.1 40 40
+ 0.17804 2 3 cbr 210 ------- 2 1.0 3.1 40 40
- 0.17804 2 3 cbr 210 ------- 2 1.0 3.1 40 40
r 0.178868 2 3 cbr 210 ------- 2 1.0 3.1 28 28
+ 0.17896 1 2 cbr 210 ------- 2 1.0 3.1 47 47
- 0.17896 1 2 cbr 210 ------- 2 1.0 3.1 47 47
r 0.17972 1 2 cbr 210 ------- 2 1.0 3.1 41 41
+ 0.17972 2 3 cbr 210 ------- 2 1.0 3.1 41 41
- 0.17972 2 3 cbr 210 ------- 2 1.0 3.1 41 41
r 0.180548 2 3 cbr 210 ------- 2 1.0 3.1 29 29
+ 0.18064 1 2 cbr 210 ------- 2 1.0 3.1 48 48
- 0.18064 1 2 cbr 210 ------- 2 1.0 3.1 48 48
r 0.1814 1 2 cbr 210 ------- 2 1.0 3.1 42 42
+ 0.1814 2 3 cbr 210 ------- 2 1.0 3.1 42 42
- 0.1814 2 3 cbr 210 ------- 2 1.0 3.1 42 42
r 0.182228 2 3 cbr 210 ------- 2 1.0 3.1 30 30
+ 0.18232 1 2 cbr 210 ------- 2 1.0 3.1 49 49
- 0.18232 1 2 cbr 210 ------- 2 1.0 3.1 49 49
r 0.18308 1 2 cbr 210 ------- 2 1.0 3.1 43 43
+ 0.18308 2 3 cbr 210 ------- 2 1.0 3.1 43 43
- 0.18308 2 3 cbr 210 ------- 2 1.0 3.1 43 43
r 0.183908 2 3 cbr 210 ------- 2 1.0 3.1 31 31
+ 0.184 1 2 cbr 210 ------- 2 1.0 3.1 50 50
- 0.184 1 2 cbr 210 ------- 2 1.0 3.1 50 50
r 0.18476 1 2 cbr 210 ------- 2 1.0 3.1 44 44
+ 0.18476 2 3 cbr 210 ------- 2 1.0 3.1 44 44
- 0.18476 2 3 cbr 210 ------- 2 1.0 3.1 44 44
r 0.185588 2 3 cbr 210 ------- 2 1.0 3.1 32 32
+ 0.18568 1 2 cbr 210 ------- 2 1.0 3.1 51 51
- 0.18568 1 2 cbr 210 ------- 2 1.0 3.1 51 51
r 0.18644 1 2 cbr 210 ------- 2 1.0 3.1 45 45
+ 0.18644 2 3 cbr 210 ------- 2 1.0 3.1 45 45
- 0.18644 2 3 cbr 210 ------- 2 1.0 3.1 45 45
r 0.187268 2 3 cbr 210 ------- 2 1.0 3.1 33 33
+ 0.18736 1 2 cbr 210 ------- 2 1.0 3.1 52 52
- 0.18736 1 2 cbr 210 ------- 2 1.0 3.1 52 52
r 0.18812 1 2 cbr 210 ------- 2 1.0 3.1 46 46
+ 0.18812 2 3 cbr 210 ------- 2 1.0 3.1 46 46
- 0.18812 2 3 cbr 210 ------- 2 1.0 3.1 46 46
r 0.188948 2 3 cbr 210 ------- 2 1.0 3.1 34 34
+ 0.18904 1 2 cbr 210 ------- 2 1.0 3.1 53 53
- 0.18904 1 2 cbr 210 ------- 2 1.0 3.1 53 53
r 0.1898 1 2 cbr 210 ------- 2 1.0 3.1 47 47
+ 0.1898 2 3 cbr 210 ------- 2 1.0 3.1 47 47
- 0.1898 2 3 cbr 210 ------- 2 1.0 3.1 47 47
r 0.190628 2 3 cbr 210 ------- 2 1.0 3.1 35 35
+ 0.19072 1 2 cbr 210 ------- 2 1.0 3.1 54 54
- 0.19072 1 2 cbr 210 ------- 2 1.0 3.1 54 54
r 0.19148 1 2 cbr 210 ------- 2 1.0 3.1 48 48
+ 0.19148 2 3 cbr 210 ------- 2 1.0 3.1 48 48
- 0.19148 2 3 cbr 210 ------- 2 1.0 3.1 48 48
r 0.192308 2 3 cbr 210 ------- 2 1.0 3.1 36 36
+ 0.1924 1 2 cbr 210 ------- 2 1.0 3.1 55 55
- 0.1924 1 2 cbr 210 ------- 2 1.0 3.1 55 55
r 0.19316 1 2 cbr 210 ------- 2 1.0 3.1 49 49
+ 0.19316 2 3 cbr 210 ------- 2 1.0 3.1 49 49
- 0.19316 2 3 cbr 210 ------- 2 1.0 3.1 49 49
r 0.193988 2 3 cbr 210 ------- 2 1.0 3.1 37 37
+ 0.19408 1 2 cbr 210 ------- 2 1.0 3.1 56 56
- 0.19408 1 2 cbr 210 ------- 2 1.0 3.1 56 56
r 0.19484 1 2 cbr 210 ------- 2 1.0 3.1 50 50
+ 0.19484 2 3 cbr 210 ------- 2 1.0 3.1 50 50
- 0.19484 2 3 cbr 210 ------- 2 1.0 3.1 50 50
r 0.195668 2 3 cbr 210 ------- 2 1.0 3.1 38 38
+ 0.19576 1 2 cbr 210 ------- 2 1.0 3.1 57 57
- 0.19576 1 2 cbr 210 ------- 2 1.0 3.1 57 57
r 0.19652 1 2 cbr 210 ------- 2 1.0 3.1 51 51
+ 0.19652 2 3 cbr 210 ------- 2 1.0 3.1 51 51
- 0.19652 2 3 cbr 210 ------- 2 1.0 3.1 51 51
r 0.197348 2 3 cbr 210 ------- 2 1.0 3.1 39 39
+ 0.19744 1 2 cbr 210 ------- 2 1.0 3.1 58 58
- 0.19744 1 2 cbr 210 ------- 2 1.0 3.1 58 58
r 0.1982 1 2 cbr 210 ------- 2 1.0 3.1 52 52
+ 0.1982 2 3 cbr 210 ------- 2 1.0 3.1 52 52
- 0.1982 2 3 cbr 210 ------- 2 1.0 3.1 52 52
r 0.199028 2 3 cbr 210 ------- 2 1.0 3.1 40 40
+ 0.19912 1 2 cbr 210 ------- 2 1.0 3.1 59 59
- 0.19912 1 2 cbr 210 ------- 2 1.0 3.1 59 59
r 0.19988 1 2 cbr 210 ------- 2 1.0 3.1 53 53
+ 0.19988 2 3 cbr 210 ------- 2 1.0 3.1 53 53
- 0.19988 2 3 cbr 210 ------- 2 1.0 3.1 53 53
r 0.200708 2 3 cbr 210 ------- 2 1.0 3.1 41 41
+ 0.2008 1 2 cbr 210 ------- 2 1.0 3.1 60 60
- 0.2008 1 2 cbr 210 ------- 2 1.0 3.1 60 60
r 0.20156 1 2 cbr 210 ------- 2 1.0 3.1 54 54
+ 0.20156 2 3 cbr 210 ------- 2 1.0 3.1 54 54
- 0.20156 2 3 cbr 210 ------- 2 1.0 3.1 54 54
r 0.202388 2 3 cbr 210 ------- 2 1.0 3.1 42 42
+ 0.20248 1 2 cbr 210 ------- 2 1.0 3.1 61 61
- 0.20248 1 2 cbr 210 ------- 2 1.0 3.1 61 61
r 0.20324 1 2 cbr 210 ------- 2 1.0 3.1 55 55
+ 0.20324 2 3 cbr 210 ------- 2 1.0 3.1 55 55
- 0.20324 2 3 cbr 210 ------- 2 1.0 3.1 55 55
r 0.204068 2 3 cbr 210 ------- 2 1.0 3.1 43 43
+ 0.20416 1 2 cbr 210 ------- 2 1.0 3.1 62 62
- 0.20416 1 2 cbr 210 ------- 2 1.0 3.1 62 62
r 0.20492 1 2 cbr 210 ------- 2 1.0 3.1 56 56
+ 0.20492 2 3 cbr 210 ------- 2 1.0 3.1 56 56
- 0.20492 2 3 cbr 210 ------- 2 1.0 3.1 56 56
r 0.205748 2 3 cbr 210 ------- 2 1.0 3.1 44 44
+ 0.20584 1 2 cbr 210 ------- 2 1.0 3.1 63 63
- 0.20584 1 2 cbr 210 ------- 2 1.0 3.1 63 63
r 0.2066 1 2 cbr 210 ------- 2 1.0 3.1 57 57
+ 0.2066 2 3 cbr 210 ------- 2 1.0 3.1 57 57
- 0.2066 2 3 cbr 210 ------- 2 1.0 3.1 57 57
r 0.207428 2 3 cbr 210 ------- 2 1.0 3.1 45 45
+ 0.20752 1 2 cbr 210 ------- 2 1.0 3.1 64 64
- 0.20752 1 2 cbr 210 ------- 2 1.0 3.1 64 64
r 0.20828 1 2 cbr 210 ------- 2 1.0 3.1 58 58
+ 0.20828 2 3 cbr 210 ------- 2 1.0 3.1 58 58
- 0.20828 2 3 cbr 210 ------- 2 1.0 3.1 58 58
r 0.209108 2 3 cbr 210 ------- 2 1.0 3.1 46 46
+ 0.2092 1 2 cbr 210 ------- 2 1.0 3.1 65 65
- 0.2092 1 2 cbr 210 ------- 2 1.0 3.1 65 65
r 0.20996 1 2 cbr 210 ------- 2 1.0 3.1 59 59
+ 0.20996 2 3 cbr 210 ------- 2 1.0 3.1 59 59
- 0.20996 2 3 cbr 210 ------- 2 1.0 3.1 59 59
r 0.210788 2 3 cbr 210 ------- 2 1.0 3.1 47 47
+ 0.21088 1 2 cbr 210 ------- 2 1.0 3.1 66 66
- 0.21088 1 2 cbr 210 ------- 2 1.0 3.1 66 66
r 0.21164 1 2 cbr 210 ------- 2 1.0 3.1 60 60
+ 0.21164 2 3 cbr 210 ------- 2 1.0 3.1 60 60
- 0.21164 2 3 cbr 210 ------- 2 1.0 3.1 60 60
r 0.212468 2 3 cbr 210 ------- 2 1.0 3.1 48 48
+ 0.21256 1 2 cbr 210 ------- 2 1.0 3.1 67 67
- 0.21256 1 2 cbr 210 ------- 2 1.0 3.1 67 67
r 0.21332 1 2 cbr 210 ------- 2 1.0 3.1 61 61
+ 0.21332 2 3 cbr 210 ------- 2 1.0 3.1 61 61
- 0.21332 2 3 cbr 210 ------- 2 1.0 3.1 61 61
r 0.214148 2 3 cbr 210 ------- 2 1.0 3.1 49 49
+ 0.21424 1 2 cbr 210 ------- 2 1.0 3.1 68 68
- 0.21424 1 2 cbr 210 ------- 2 1.0 3.1 68 68
r 0.215 1 2 cbr 210 ------- 2 1.0 3.1 62 62
+ 0.215 2 3 cbr 210 ------- 2 1.0 3.1 62 62
- 0.215 2 3 cbr 210 ------- 2 1.0 3.1 62 62
r 0.215828 2 3 cbr 210 ------- 2 1.0 3.1 50 50
+ 0.21592 1 2 cbr 210 ------- 2 1.0 3.1 69 69
- 0.21592 1 2 cbr 210 ------- 2 1.0 3.1 69 69
r 0.21668 1 2 cbr 210 ------- 2 1.0 3.1 63 63
+ 0.21668 2 3 cbr 210 ------- 2 1.0 3.1 63 63
- 0.21668 2 3 cbr 210 ------- 2 1.0 3.1 63 63
r 0.217508 2 3 cbr 210 ------- 2 1.0 3.1 51 51
+ 0.2176 1 2 cbr 210 ------- 2 1.0 3.1 70 70
- 0.2176 1 2 cbr 210 ------- 2 1.0 3.1 70 70
r 0.21836 1 2 cbr 210 ------- 2 1.0 3.1 64 64
+ 0.21836 2 3 cbr 210 ------- 2 1.0 3.1 64 64
- 0.21836 2 3 cbr 210 ------- 2 1.0 3.1 64 64
r 0.219188 2 3 cbr 210 ------- 2 1.0 3.1 52 52
+ 0.21928 1 2 cbr 210 ------- 2 1.0 3.1 71 71
- 0.21928 1 2 cbr 210 ------- 2 1.0 3.1 71 71
r 0.22004 1 2 cbr 210 ------- 2 1.0 3.1 65 65
+ 0.22004 2 3 cbr 210 ------- 2 1.0 3.1 65 65
- 0.22004 2 3 cbr 210 ------- 2 1.0 3.1 65 65
r 0.220868 2 3 cbr 210 ------- 2 1.0 3.1 53 53
+ 0.22096 1 2 cbr 210 ------- 2 1.0 3.1 72 72
- 0.22096 1 2 cbr 210 ------- 2 1.0 3.1 72 72
r 0.22172 1 2 cbr 210 ------- 2 1.0 3.1 66 66
+ 0.22172 2 3 cbr 210 ------- 2 1.0 3.1 66 66
- 0.22172 2 3 cbr 210 ------- 2 1.0 3.1 66 66
r 0.222548 2 3 cbr 210 ------- 2 1.0 3.1 54 54
+ 0.22264 1 2 cbr 210 ------- 2 1.0 3.1 73 73
- 0.22264 1 2 cbr 210 ------- 2 1.0 3.1 73 73
r 0.2234 1 2 cbr 210 ------- 2 1.0 3.1 67 67
+ 0.2234 2 3 cbr 210 ------- 2 1.0 3.1 67 67
- 0.2234 2 3 cbr 210 ------- 2 1.0 3.1 67 67
r 0.224228 2 3 cbr 210 ------- 2 1.0 3.1 55 55
+ 0.22432 1 2 cbr 210 ------- 2 1.0 3.1 74 74
- 0.22432 1 2 cbr 210 ------- 2 1.0 3.1 74 74
r 0.22508 1 2 cbr 210 ------- 2 1.0 3.1 68 68
+ 0.22508 2 3 cbr 210 ------- 2 1.0 3.1 68 68
- 0.22508 2 3 cbr 210 ------- 2 1.0 3.1 68 68
r 0.225908 2 3 cbr 210 ------- 2 1.0 3.1 56 56
+ 0.226 1 2 cbr 210 ------- 2 1.0 3.1 75 75
- 0.226 1 2 cbr 210 ------- 2 1.0 3.1 75 75
r 0.22676 1 2 cbr 210 ------- 2 1.0 3.1 69 69
+ 0.22676 2 3 cbr 210 ------- 2 1.0 3.1 69 69
- 0.22676 2 3 cbr 210 ------- 2 1.0 3.1 69 69
r 0.227588 2 3 cbr 210 ------- 2 1.0 3.1 57 57
+ 0.22768 1 2 cbr 210 ------- 2 1.0 3.1 76 76
- 0.22768 1 2 cbr 210 ------- 2 1.0 3.1 76 76
r 0.22844 1 2 cbr 210 ------- 2 1.0 3.1 70 70
+ 0.22844 2 3 cbr 210 ------- 2 1.0 3.1 70 70
- 0.22844 2 3 cbr 210 ------- 2 1.0 3.1 70 70
r 0.229268 2 3 cbr 210 ------- 2 1.0 3.1 58 58
+ 0.22936 1 2 cbr 210 ------- 2 1.0 3.1 77 77
- 0.22936 1 2 cbr 210 ------- 2 1.0 3.1 77 77
r 0.23012 1 2 cbr 210 ------- 2 1.0 3.1 71 71
+ 0.23012 2 3 cbr 210 ------- 2 1.0 3.1 71 71
- 0.23012 2 3 cbr 210 ------- 2 1.0 3.1 71 71
r 0.230948 2 3 cbr 210 ------- 2 1.0 3.1 59 59
+ 0.23104 1 2 cbr 210 ------- 2 1.0 3.1 78 78
- 0.23104 1 2 cbr 210 ------- 2 1.0 3.1 78 78
r 0.2318 1 2 cbr 210 ------- 2 1.0 3.1 72 72
+ 0.2318 2 3 cbr 210 ------- 2 1.0 3.1 72 72
- 0.2318 2 3 cbr 210 ------- 2 1.0 3.1 72 72
r 0.232628 2 3 cbr 210 ------- 2 1.0 3.1 60 60
+ 0.23272 1 2 cbr 210 ------- 2 1.0 3.1 79 79
- 0.23272 1 2 cbr 210 ------- 2 1.0 3.1 79 79
r 0.23348 1 2 cbr 210 ------- 2 1.0 3.1 73 73
+ 0.23348 2 3 cbr 210 ------- 2 1.0 3.1 73 73
- 0.23348 2 3 cbr 210 ------- 2 1.0 3.1 73 73
r 0.234308 2 3 cbr 210 ------- 2 1.0 3.1 61 61
+ 0.2344 1 2 cbr 210 ------- 2 1.0 3.1 80 80
- 0.2344 1 2 cbr 210 ------- 2 1.0 3.1 80 80
r 0.23516 1 2 cbr 210 ------- 2 1.0 3.1 74 74
+ 0.23516 2 3 cbr 210 ------- 2 1.0 3.1 74 74
- 0.23516 2 3 cbr 210 ------- 2 1.0 3.1 74 74
r 0.235988 2 3 cbr 210 ------- 2 1.0 3.1 62 62
+ 0.23608 1 2 cbr 210 ------- 2 1.0 3.1 81 81
- 0.23608 1 2 cbr 210 ------- 2 1.0 3.1 81 81
r 0.23684 1 2 cbr 210 ------- 2 1.0 3.1 75 75
+ 0.23684 2 3 cbr 210 ------- 2 1.0 3.1 75 75
- 0.23684 2 3 cbr 210 ------- 2 1.0 3.1 75 75
r 0.237668 2 3 cbr 210 ------- 2 1.0 3.1 63 63
+ 0.23776 1 2 cbr 210 ------- 2 1.0 3.1 82 82
- 0.23776 1 2 cbr 210 ------- 2 1.0 3.1 82 82
r 0.23852 1 2 cbr 210 ------- 2 1.0 3.1 76 76
+ 0.23852 2 3 cbr 210 ------- 2 1.0 3.1 76 76
- 0.23852 2 3 cbr 210 ------- 2 1.0 3.1 76 76
r 0.239348 2 3 cbr 210 ------- 2 1.0 3.1 64 64
+ 0.23944 1 2 cbr 210 ------- 2 1.0 3.1 83 83
- 0.23944 1 2 cbr 210 ------- 2 1.0 3.1 83 83
r 0.2402 1 2 cbr 210 ------- 2 1.0 3.1 77 77
+ 0.2402 2 3 cbr 210 ------- 2 1.0 3.1 77 77
- 0.2402 2 3 cbr 210 ------- 2 1.0 3.1 77 77
r 0.241028 2 3 cbr 210 ------- 2 1.0 3.1 65 65
+ 0.24112 1 2 cbr 210 ------- 2 1.0 3.1 84 84
- 0.24112 1 2 cbr 210 ------- 2 1.0 3.1 84 84
r 0.24188 1 2 cbr 210 ------- 2 1.0 3.1 78 78
+ 0.24188 2 3 cbr 210 ------- 2 1.0 3.1 78 78
- 0.24188 2 3 cbr 210 ------- 2 1.0 3.1 78 78
r 0.242708 2 3 cbr 210 ------- 2 1.0 3.1 66 66
+ 0.2428 1 2 cbr 210 ------- 2 1.0 3.1 85 85
- 0.2428 1 2 cbr 210 ------- 2 1.0 3.1 85 85
r 0.24356 1 2 cbr 210 ------- 2 1.0 3.1 79 79
+ 0.24356 2 3 cbr 210 ------- 2 1.0 3.1 79 79
- 0.24356 2 3 cbr 210 ------- 2 1.0 3.1 79 79
r 0.244388 2 3 cbr 210 ------- 2 1.0 3.1 67 67
+ 0.24448 1 2 cbr 210 ------- 2 1.0 3.1 86 86
- 0.24448 1 2 cbr 210 ------- 2 1.0 3.1 86 86
r 0.24524 1 2 cbr 210 ------- 2 1.0 3.1 80 80
+ 0.24524 2 3 cbr 210 ------- 2 1.0 3.1 80 80
- 0.24524 2 3 cbr 210 ------- 2 1.0 3.1 80 80
r 0.246068 2 3 cbr 210 ------- 2 1.0 3.1 68 68
+ 0.24616 1 2 cbr 210 ------- 2 1.0 3.1 87 87
- 0.24616 1 2 cbr 210 ------- 2 1.0 3.1 87 87
r 0.24692 1 2 cbr 210 ------- 2 1.0 3.1 81 81
+ 0.24692 2 3 cbr 210 ------- 2 1.0 3.1 81 81
- 0.24692 2 3 cbr 210 ------- 2 1.0 3.1 81 81
r 0.247748 2 3 cbr 210 ------- 2 1.0 3.1 69 69
+ 0.24784 1 2 cbr 210 ------- 2 1.0 3.1 88 88
- 0.24784 1 2 cbr 210 ------- 2 1.0 3.1 88 88
r 0.2486 1 2 cbr 210 ------- 2 1.0 3.1 82 82
+ 0.2486 2 3 cbr 210 ------- 2 1.0 3.1 82 82
- 0.2486 2 3 cbr 210 ------- 2 1.0 3.1 82 82
r 0.249428 2 3 cbr 210 ------- 2 1.0 3.1 70 70
+ 0.24952 1 2 cbr 210 ------- 2 1.0 3.1 89 89
- 0.24952 1 2 cbr 210 ------- 2 1.0 3.1 89 89
r 0.25028 1 2 cbr 210 ------- 2 1.0 3.1 83 83
+ 0.25028 2 3 cbr 210 ------- 2 1.0 3.1 83 83
- 0.25028 2 3 cbr 210 ------- 2 1.0 3.1 83 83
r 0.251108 2 3 cbr 210 ------- 2 1.0 3.1 71 71
+ 0.2512 1 2 cbr 210 ------- 2 1.0 3.1 90 90
- 0.2512 1 2 cbr 210 ------- 2 1.0 3.1 90 90
r 0.25196 1 2 cbr 210 ------- 2 1.0 3.1 84 84
+ 0.25196 2 3 cbr 210 ------- 2 1.0 3.1 84 84
- 0.25196 2 3 cbr 210 ------- 2 1.0 3.1 84 84
r 0.252788 2 3 cbr 210 ------- 2 1.0 3.1 72 72
+ 0.25288 1 2 cbr 210 ------- 2 1.0 3.1 91 91
- 0.25288 1 2 cbr 210 ------- 2 1.0 3.1 91 91
r 0.25364 1 2 cbr 210 ------- 2 1.0 3.1 85 85
+ 0.25364 2 3 cbr 210 ------- 2 1.0 3.1 85 85
- 0.25364 2 3 cbr 210 ------- 2 1.0 3.1 85 85
r 0.254468 2 3 cbr 210 ------- 2 1.0 3.1 73 73
+ 0.25456 1 2 cbr 210 ------- 2 1.0 3.1 92 92
- 0.25456 1 2 cbr 210 ------- 2 1.0 3.1 92 92
r 0.25532 1 2 cbr 210 ------- 2 1.0 3.1 86 86
+ 0.25532 2 3 cbr 210 ------- 2 1.0 3.1 86 86
- 0.25532 2 3 cbr 210 ------- 2 1.0 3.1 86 86
r 0.256148 2 3 cbr 210 ------- 2 1.0 3.1 74 74
+ 0.25624 1 2 cbr 210 ------- 2 1.0 3.1 93 93
- 0.25624 1 2 cbr 210 ------- 2 1.0 3.1 93 93
r 0.257 1 2 cbr 210 ------- 2 1.0 3.1 87 87
+ 0.257 2 3 cbr 210 ------- 2 1.0 3.1 87 87
- 0.257 2 3 cbr 210 ------- 2 1.0 3.1 87 87
r 0.257828 2 3 cbr 210 ------- 2 1.0 3.1 75 75
+ 0.25792 1 2 cbr 210 ------- 2 1.0 3.1 94 94
- 0.25792 1 2 cbr 210 ------- 2 1.0 3.1 94 94
r 0.25868 1 2 cbr 210 ------- 2 1.0 3.1 88 88
+ 0.25868 2 3 cbr 210 ------- 2 1.0 3.1 88 88
- 0.25868 2 3 cbr 210 ------- 2 1.0 3.1 88 88
r 0.259508 2 3 cbr 210 ------- 2 1.0 3.1 76 76
+ 0.2596 1 2 cbr 210 ------- 2 1.0 3.1 95 95
- 0.2596 1 2 cbr 210 ------- 2 1.0 3.1 95 95
r 0.26036 1 2 cbr 210 ------- 2 1.0 3.1 89 89
+ 0.26036 2 3 cbr 210 ------- 2 1.0 3.1 89 89
- 0.26036 2 3 cbr 210 ------- 2 1.0 3.1 89 89
r 0.261188 2 3 cbr 210 ------- 2 1.0 3.1 77 77
+ 0.26128 1 2 cbr 210 ------- 2 1.0 3.1 96 96
- 0.26128 1 2 cbr 210 ------- 2 1.0 3.1 96 96
r 0.26204 1 2 cbr 210 ------- 2 1.0 3.1 90 90
+ 0.26204 2 3 cbr 210 ------- 2 1.0 3.1 90 90
- 0.26204 2 3 cbr 210 ------- 2 1.0 3.1 90 90
r 0.262868 2 3 cbr 210 ------- 2 1.0 3.1 78 78
+ 0.26296 1 2 cbr 210 ------- 2 1.0 3.1 97 97
- 0.26296 1 2 cbr 210 ------- 2 1.0 3.1 97 97
r 0.26372 1 2 cbr 210 ------- 2 1.0 3.1 91 91
+ 0.26372 2 3 cbr 210 ------- 2 1.0 3.1 91 91
- 0.26372 2 3 cbr 210 ------- 2 1.0 3.1 91 91
r 0.264548 2 3 cbr 210 ------- 2 1.0 3.1 79 79
+ 0.26464 1 2 cbr 210 ------- 2 1.0 3.1 98 98
- 0.26464 1 2 cbr 210 ------- 2 1.0 3.1 98 98
r 0.2654 1 2 cbr 210 ------- 2 1.0 3.1 92 92
+ 0.2654 2 3 cbr 210 ------- 2 1.0 3.1 92 92
- 0.2654 2 3 cbr 210 ------- 2 1.0 3.1 92 92
r 0.266228 2 3 cbr 210 ------- 2 1.0 3.1 80 80
+ 0.26632 1 2 cbr 210 ------- 2 1.0 3.1 99 99
- 0.26632 1 2 cbr 210 ------- 2 1.0 3.1 99 99
r 0.26708 1 2 cbr 210 ------- 2 1.0 3.1 93 93
+ 0.26708 2 3 cbr 210 ------- 2 1.0 3.1 93 93
- 0.26708 2 3 cbr 210 ------- 2 1.0 3.1 93 93
r 0.267908 2 3 cbr 210 ------- 2 1.0 3.1 81 81
+ 0.268 1 2 cbr 210 ------- 2 1.0 3.1 100 100
- 0.268 1 2 cbr 210 ------- 2 1.0 3.1 100 100
r 0.26876 1 2 cbr 210 ------- 2 1.0 3.1 94 94
+ 0.26876 2 3 cbr 210 ------- 2 1.0 3.1 94 94
- 0.26876 2 3 cbr 210 ------- 2 1.0 3.1 94 94
r 0.269588 2 3 cbr 210 ------- 2 1.0 3.1 82 82
+ 0.26968 1 2 cbr 210 ------- 2 1.0 3.1 101 101
- 0.26968 1 2 cbr 210 ------- 2 1.0 3.1 101 101
r 0.27044 1 2 cbr 210 ------- 2 1.0 3.1 95 95
+ 0.27044 2 3 cbr 210 ------- 2 1.0 3.1 95 95
- 0.27044 2 3 cbr 210 ------- 2 1.0 3.1 95 95
r 0.271268 2 3 cbr 210 ------- 2 1.0 3.1 83 83
+ 0.27136 1 2 cbr 210 ------- 2 1.0 3.1 102 102
- 0.27136 1 2 cbr 210 ------- 2 1.0 3.1 102 102
r 0.27212 1 2 cbr 210 ------- 2 1.0 3.1 96 96
+ 0.27212 2 3 cbr 210 ------- 2 1.0 3.1 96 96
- 0.27212 2 3 cbr 210 ------- 2 1.0 3.1 96 96
r 0.272948 2 3 cbr 210 ------- 2 1.0 3.1 84 84
+ 0.27304 1 2 cbr 210 ------- 2 1.0 3.1 103 103
- 0.27304 1 2 cbr 210 ------- 2 1.0 3.1 103 103
r 0.2738 1 2 cbr 210 ------- 2 1.0 3.1 97 97
+ 0.2738 2 3 cbr 210 ------- 2 1.0 3.1 97 97
- 0.2738 2 3 cbr 210 ------- 2 1.0 3.1 97 97
r 0.274628 2 3 cbr 210 ------- 2 1.0 3.1 85 85
+ 0.27472 1 2 cbr 210 ------- 2 1.0 3.1 104 104
- 0.27472 1 2 cbr 210 ------- 2 1.0 3.1 104 104
r 0.27548 1 2 cbr 210 ------- 2 1.0 3.1 98 98
+ 0.27548 2 3 cbr 210 ------- 2 1.0 3.1 98 98
- 0.27548 2 3 cbr 210 ------- 2 1.0 3.1 98 98
r 0.276308 2 3 cbr 210 ------- 2 1.0 3.1 86 86
+ 0.2764 1 2 cbr 210 ------- 2 1.0 3.1 105 105
- 0.2764 1 2 cbr 210 ------- 2 1.0 3.1 105 105
r 0.27716 1 2 cbr 210 ------- 2 1.0 3.1 99 99
+ 0.27716 2 3 cbr 210 ------- 2 1.0 3.1 99 99
- 0.27716 2 3 cbr 210 ------- 2 1.0 3.1 99 99
r 0.277988 2 3 cbr 210 ------- 2 1.0 3.1 87 87
+ 0.27808 1 2 cbr 210 ------- 2 1.0 3.1 106 106
- 0.27808 1 2 cbr 210 ------- 2 1.0 3.1 106 106
r 0.27884 1 2 cbr 210 ------- 2 1.0 3.1 100 100
+ 0.27884 2 3 cbr 210 ------- 2 1.0 3.1 100 100
- 0.27884 2 3 cbr 210 ------- 2 1.0 3.1 100 100
r 0.279668 2 3 cbr 210 ------- 2 1.0 3.1 88 88
+ 0.27976 1 2 cbr 210 ------- 2 1.0 3.1 107 107
- 0.27976 1 2 cbr 210 ------- 2 1.0 3.1 107 107
r 0.28052 1 2 cbr 210 ------- 2 1.0 3.1 101 101
+ 0.28052 2 3 cbr 210 ------- 2 1.0 3.1 101 101
- 0.28052 2 3 cbr 210 ------- 2 1.0 3.1 101 101
r 0.281348 2 3 cbr 210 ------- 2 1.0 3.1 89 89
+ 0.28144 1 2 cbr 210 ------- 2 1.0 3.1 108 108
- 0.28144 1 2 cbr 210 ------- 2 1.0 3.1 108 108
r 0.2822 1 2 cbr 210 ------- 2 1.0 3.1 102 102
+ 0.2822 2 3 cbr 210 ------- 2 1.0 3.1 102 102
- 0.2822 2 3 cbr 210 ------- 2 1.0 3.1 102 102
r 0.283028 2 3 cbr 210 ------- 2 1.0 3.1 90 90
+ 0.28312 1 2 cbr 210 ------- 2 1.0 3.1 109 109
- 0.28312 1 2 cbr 210 ------- 2 1.0 3.1 109 109
r 0.28388 1 2 cbr 210 ------- 2 1.0 3.1 103 103
+ 0.28388 2 3 cbr 210 ------- 2 1.0 3.1 103 103
- 0.28388 2 3 cbr 210 ------- 2 1.0 3.1 103 103
r 0.284708 2 3 cbr 210 ------- 2 1.0 3.1 91 91
+ 0.2848 1 2 cbr 210 ------- 2 1.0 3.1 110 110
- 0.2848 1 2 cbr 210 ------- 2 1.0 3.1 110 110
r 0.28556 1 2 cbr 210 ------- 2 1.0 3.1 104 104
+ 0.28556 2 3 cbr 210 ------- 2 1.0 3.1 104 104
- 0.28556 2 3 cbr 210 ------- 2 1.0 3.1 104 104
r 0.286388 2 3 cbr 210 ------- 2 1.0 3.1 92 92
+ 0.28648 1 2 cbr 210 ------- 2 1.0 3.1 111 111
- 0.28648 1 2 cbr 210 ------- 2 1.0 3.1 111 111
r 0.28724 1 2 cbr 210 ------- 2 1.0 3.1 105 105
+ 0.28724 2 3 cbr 210 ------- 2 1.0 3.1 105 105
- 0.28724 2 3 cbr 210 ------- 2 1.0 3.1 105 105
r 0.288068 2 3 cbr 210 ------- 2 1.0 3.1 93 93
+ 0.28816 1 2 cbr 210 ------- 2 1.0 3.1 112 112
- 0.28816 1 2 cbr 210 ------- 2 1.0 3.1 112 112
r 0.28892 1 2 cbr 210 ------- 2 1.0 3.1 106 106
+ 0.28892 2 3 cbr 210 ------- 2 1.0 3.1 106 106
- 0.28892 2 3 cbr 210 ------- 2 1.0 3.1 106 106
r 0.289748 2 3 cbr 210 ------- 2 1.0 3.1 94 94
+ 0.28984 1 2 cbr 210 ------- 2 1.0 3.1 113 113
- 0.28984 1 2 cbr 210 ------- 2 1.0 3.1 113 113
r 0.2906 1 2 cbr 210 ------- 2 1.0 3.1 107 107
+ 0.2906 2 3 cbr 210 ------- 2 1.0 3.1 107 107
- 0.2906 2 3 cbr 210 ------- 2 1.0 3.1 107 107
r 0.291428 2 3 cbr 210 ------- 2 1.0 3.1 95 95
+ 0.29152 1 2 cbr 210 ------- 2 1.0 3.1 114 114
- 0.29152 1 2 cbr 210 ------- 2 1.0 3.1 114 114
r 0.29228 1 2 cbr 210 ------- 2 1.0 3.1 108 108
+ 0.29228 2 3 cbr 210 ------- 2 1.0 3.1 108 108
- 0.29228 2 3 cbr 210 ------- 2 1.0 3.1 108 108